ejemplo de densidad exitada                                             
SP        RTD-PBEPBE-FC                                               6-31G               
Number of atoms                            I               10
Info1-9                                    I   N=           9
          18          18           0           0           0         110
           1         218         901
Charge                                     I                0
Multiplicity                               I                1
Number of electrons                        I               44
Number of alpha electrons                  I               22
Number of beta electrons                   I               22
Number of basis functions                  I               62
Number of independent functions            I               62
Number of point charges in /Mol/           I                0
Number of translation vectors              I                0
Atomic numbers                             I   N=          10
           1           6           7           1           7           1
           6           7           1           7
Nuclear charges                            R   N=          10
  1.00000000E+00  6.00000000E+00  7.00000000E+00  1.00000000E+00  7.00000000E+00
  1.00000000E+00  6.00000000E+00  7.00000000E+00  1.00000000E+00  7.00000000E+00
Current cartesian coordinates              R   N=          30
  4.91265678E+00  2.68309174E+00  1.06066359E+00  6.68963807E+00  2.68300104E+00
  2.74539413E-02  6.68968342E+00  3.88707784E+00 -2.59369069E+00  8.46661558E+00
  2.68296891E+00  1.06066737E+00  6.68959839E+00  1.47934376E+00 -2.59394391E+00
  1.74988009E+02  1.72758444E+02  1.71136016E+02  1.76764990E+02  1.72758353E+02
  1.70102806E+02  1.76765035E+02  1.73962430E+02  1.67481661E+02  1.78541968E+02
  1.72758321E+02  1.71136019E+02  1.76764950E+02  1.71554696E+02  1.67481408E+02
Force Field                                I                0
Int Atom Types                             I   N=          10
           0           0           0           0           0           0
           0           0           0           0
MM charges                                 R   N=          10
  0.00000000E+00  0.00000000E+00  0.00000000E+00  0.00000000E+00  0.00000000E+00
  0.00000000E+00  0.00000000E+00  0.00000000E+00  0.00000000E+00  0.00000000E+00
Integer atomic weights                     I   N=          10
           1          12          14           1          14           1
          12          14           1          14
Real atomic weights                        R   N=          10
  1.00782504E+00  1.20000000E+01  1.40030740E+01  1.00782504E+00  1.40030740E+01
  1.00782504E+00  1.20000000E+01  1.40030740E+01  1.00782504E+00  1.40030740E+01
Atom fragment info                         I   N=          10
           0           0           0           0           0           0
           0           0           0           0
Atom residue num                           I   N=          10
           0           0           0           0           0           0
           0           0           0           0
Nuclear spins                              I   N=          10
           1           0           2           1           2           1
           0           2           1           2
Nuclear ZEff                               R   N=          10
 -1.00000000E+00 -3.60000000E+00 -4.55000000E+00 -1.00000000E+00 -4.55000000E+00
 -1.00000000E+00 -3.60000000E+00 -4.55000000E+00 -1.00000000E+00 -4.55000000E+00
Nuclear QMom                               R   N=          10
  0.00000000E+00  0.00000000E+00  2.04400000E+00  0.00000000E+00  2.04400000E+00
  0.00000000E+00  0.00000000E+00  2.04400000E+00  0.00000000E+00  2.04400000E+00
Nuclear GFac                               R   N=          10
  2.79284600E+00  0.00000000E+00  4.03761000E-01  2.79284600E+00  4.03761000E-01
  2.79284600E+00  0.00000000E+00  4.03761000E-01  2.79284600E+00  4.03761000E-01
MicOpt                                     I   N=          10
          -1          -1          -1          -1          -1          -1
          -1          -1          -1          -1
Number of contracted shells                I               26
Number of primitive shells                 I               76
Pure/Cartesian d shells                    I                1
Pure/Cartesian f shells                    I                0
Highest angular momentum                   I                1
Largest degree of contraction              I                6
Shell types                                I   N=          26
           0           0           0          -1          -1           0
          -1          -1           0           0           0          -1
          -1           0           0           0          -1          -1
           0          -1          -1           0           0           0
          -1          -1
Number of primitives per shell             I   N=          26
           3           1           6           3           1           6
           3           1           3           1           6           3
           1           3           1           6           3           1
           6           3           1           3           1           6
           3           1
Shell to atom map                          I   N=          26
           1           1           2           2           2           3
           3           3           4           4           5           5
           5           6           6           7           7           7
           8           8           8           9           9          10
          10          10
Primitive exponents                        R   N=          76
  1.87311370E+01  2.82539436E+00  6.40121692E-01  1.61277759E-01  3.04752488E+03
  4.57369518E+02  1.03948685E+02  2.92101553E+01  9.28666296E+00  3.16392696E+00
  7.86827235E+00  1.88128854E+00  5.44249258E-01  1.68714478E-01  4.17351146E+03
  6.27457911E+02  1.42902093E+02  4.02343293E+01  1.28202129E+01  4.39043701E+00
  1.16263619E+01  2.71627981E+00  7.72218397E-01  2.12031498E-01  1.87311370E+01
  2.82539436E+00  6.40121692E-01  1.61277759E-01  4.17351146E+03  6.27457911E+02
  1.42902093E+02  4.02343293E+01  1.28202129E+01  4.39043701E+00  1.16263619E+01
  2.71627981E+00  7.72218397E-01  2.12031498E-01  1.87311370E+01  2.82539436E+00
  6.40121692E-01  1.61277759E-01  3.04752488E+03  4.57369518E+02  1.03948685E+02
  2.92101553E+01  9.28666296E+00  3.16392696E+00  7.86827235E+00  1.88128854E+00
  5.44249258E-01  1.68714478E-01  4.17351146E+03  6.27457911E+02  1.42902093E+02
  4.02343293E+01  1.28202129E+01  4.39043701E+00  1.16263619E+01  2.71627981E+00
  7.72218397E-01  2.12031498E-01  1.87311370E+01  2.82539436E+00  6.40121692E-01
  1.61277759E-01  4.17351146E+03  6.27457911E+02  1.42902093E+02  4.02343293E+01
  1.28202129E+01  4.39043701E+00  1.16263619E+01  2.71627981E+00  7.72218397E-01
  2.12031498E-01
Contraction coefficients                   R   N=          76
  3.34946043E-02  2.34726953E-01  8.13757326E-01  1.00000000E+00  1.83473713E-03
  1.40373228E-02  6.88426223E-02  2.32184443E-01  4.67941348E-01  3.62311985E-01
 -1.19332420E-01 -1.60854152E-01  1.14345644E+00  1.00000000E+00  1.83477216E-03
  1.39946270E-02  6.85865518E-02  2.32240873E-01  4.69069948E-01  3.60455199E-01
 -1.14961182E-01 -1.69117479E-01  1.14585195E+00  1.00000000E+00  3.34946043E-02
  2.34726953E-01  8.13757326E-01  1.00000000E+00  1.83477216E-03  1.39946270E-02
  6.85865518E-02  2.32240873E-01  4.69069948E-01  3.60455199E-01 -1.14961182E-01
 -1.69117479E-01  1.14585195E+00  1.00000000E+00  3.34946043E-02  2.34726953E-01
  8.13757326E-01  1.00000000E+00  1.83473713E-03  1.40373228E-02  6.88426223E-02
  2.32184443E-01  4.67941348E-01  3.62311985E-01 -1.19332420E-01 -1.60854152E-01
  1.14345644E+00  1.00000000E+00  1.83477216E-03  1.39946270E-02  6.85865518E-02
  2.32240873E-01  4.69069948E-01  3.60455199E-01 -1.14961182E-01 -1.69117479E-01
  1.14585195E+00  1.00000000E+00  3.34946043E-02  2.34726953E-01  8.13757326E-01
  1.00000000E+00  1.83477216E-03  1.39946270E-02  6.85865518E-02  2.32240873E-01
  4.69069948E-01  3.60455199E-01 -1.14961182E-01 -1.69117479E-01  1.14585195E+00
  1.00000000E+00
P(S=P) Contraction coefficients            R   N=          76
  0.00000000E+00  0.00000000E+00  0.00000000E+00  0.00000000E+00  0.00000000E+00
  0.00000000E+00  0.00000000E+00  0.00000000E+00  0.00000000E+00  0.00000000E+00
  6.89990666E-02  3.16423961E-01  7.44308291E-01  1.00000000E+00  0.00000000E+00
  0.00000000E+00  0.00000000E+00  0.00000000E+00  0.00000000E+00  0.00000000E+00
  6.75797439E-02  3.23907296E-01  7.40895140E-01  1.00000000E+00  0.00000000E+00
  0.00000000E+00  0.00000000E+00  0.00000000E+00  0.00000000E+00  0.00000000E+00
  0.00000000E+00  0.00000000E+00  0.00000000E+00  0.00000000E+00  6.75797439E-02
  3.23907296E-01  7.40895140E-01  1.00000000E+00  0.00000000E+00  0.00000000E+00
  0.00000000E+00  0.00000000E+00  0.00000000E+00  0.00000000E+00  0.00000000E+00
  0.00000000E+00  0.00000000E+00  0.00000000E+00  6.89990666E-02  3.16423961E-01
  7.44308291E-01  1.00000000E+00  0.00000000E+00  0.00000000E+00  0.00000000E+00
  0.00000000E+00  0.00000000E+00  0.00000000E+00  6.75797439E-02  3.23907296E-01
  7.40895140E-01  1.00000000E+00  0.00000000E+00  0.00000000E+00  0.00000000E+00
  0.00000000E+00  0.00000000E+00  0.00000000E+00  0.00000000E+00  0.00000000E+00
  0.00000000E+00  0.00000000E+00  6.75797439E-02  3.23907296E-01  7.40895140E-01
  1.00000000E+00
Coordinates of each shell                  R   N=          78
  4.91265678E+00  2.68309174E+00  1.06066359E+00  4.91265678E+00  2.68309174E+00
  1.06066359E+00  6.68963807E+00  2.68300104E+00  2.74539413E-02  6.68963807E+00
  2.68300104E+00  2.74539413E-02  6.68963807E+00  2.68300104E+00  2.74539413E-02
  6.68968342E+00  3.88707784E+00 -2.59369069E+00  6.68968342E+00  3.88707784E+00
 -2.59369069E+00  6.68968342E+00  3.88707784E+00 -2.59369069E+00  8.46661558E+00
  2.68296891E+00  1.06066737E+00  8.46661558E+00  2.68296891E+00  1.06066737E+00
  6.68959839E+00  1.47934376E+00 -2.59394391E+00  6.68959839E+00  1.47934376E+00
 -2.59394391E+00  6.68959839E+00  1.47934376E+00 -2.59394391E+00  1.74988009E+02
  1.72758444E+02  1.71136016E+02  1.74988009E+02  1.72758444E+02  1.71136016E+02
  1.76764990E+02  1.72758353E+02  1.70102806E+02  1.76764990E+02  1.72758353E+02
  1.70102806E+02  1.76764990E+02  1.72758353E+02  1.70102806E+02  1.76765035E+02
  1.73962430E+02  1.67481661E+02  1.76765035E+02  1.73962430E+02  1.67481661E+02
  1.76765035E+02  1.73962430E+02  1.67481661E+02  1.78541968E+02  1.72758321E+02
  1.71136019E+02  1.78541968E+02  1.72758321E+02  1.71136019E+02  1.76764950E+02
  1.71554696E+02  1.67481408E+02  1.76764950E+02  1.71554696E+02  1.67481408E+02
  1.76764950E+02  1.71554696E+02  1.67481408E+02
Constraint Structure                       R   N=          30
  4.91265678E+00  2.68309174E+00  1.06066359E+00  6.68963807E+00  2.68300104E+00
  2.74539413E-02  6.68968342E+00  3.88707784E+00 -2.59369069E+00  8.46661558E+00
  2.68296891E+00  1.06066737E+00  6.68959839E+00  1.47934376E+00 -2.59394391E+00
  1.74988009E+02  1.72758444E+02  1.71136016E+02  1.76764990E+02  1.72758353E+02
  1.70102806E+02  1.76765035E+02  1.73962430E+02  1.67481661E+02  1.78541968E+02
  1.72758321E+02  1.71136019E+02  1.76764950E+02  1.71554696E+02  1.67481408E+02
Num ILSW                                   I              100
ILSW                                       I   N=         100
           0           1           0           0           2           0
           0           0           0           0        1009          -1
           0           0           0           0           0           0
           0           0           1           0           0           0
           1           1           0           0           0           0
           0           0      100000           0          -1           0
           0           0           0           0           0           0
           0           0           0           1           0           0
           0           0           1           0           0           0
           0           0           4          40           0           0
           0           0           0           0           0           0
           0           0           0           0           0           0
           0           0           0           0           0           0
           0           0           0           0           0           0
           0           0           0           0           0           0
           0           0           0           0           0           0
           0           0           0           0
Num RLSW                                   I               40
RLSW                                       R   N=          40
  1.00000000E+00  1.00000000E+00  1.00000000E+00  1.00000000E+00  0.00000000E+00
  0.00000000E+00  0.00000000E+00  1.00000000E+00  0.00000000E+00  0.00000000E+00
  0.00000000E+00  0.00000000E+00  1.00000000E+00  0.00000000E+00  0.00000000E+00
  0.00000000E+00  0.00000000E+00  1.00000000E+00  0.00000000E+00  0.00000000E+00
  0.00000000E+00  0.00000000E+00  1.00000000E+00  0.00000000E+00  0.00000000E+00
  0.00000000E+00  0.00000000E+00  1.00000000E+00  0.00000000E+00  0.00000000E+00
  0.00000000E+00  0.00000000E+00  0.00000000E+00  0.00000000E+00  0.00000000E+00
  0.00000000E+00  0.00000000E+00  0.00000000E+00  1.00000000E+00  1.00000000E+00
MxBond                                     I                4
NBond                                      I   N=          10
           1           4           2           1           2           1
           4           2           1           2
IBond                                      I   N=          40
           2           0           0           0           1           3
           4           5           2           5           0           0
           2           0           0           0           2           3
           0           0           7           0           0           0
           6           8           9          10           7          10
           0           0           7           0           0           0
           7           8           0           0
RBond                                      R   N=          40
  1.00000000E+00  0.00000000E+00  0.00000000E+00  0.00000000E+00  1.00000000E+00
  1.00000000E+00  1.00000000E+00  1.00000000E+00  1.00000000E+00  2.00000000E+00
  0.00000000E+00  0.00000000E+00  1.00000000E+00  0.00000000E+00  0.00000000E+00
  0.00000000E+00  1.00000000E+00  2.00000000E+00  0.00000000E+00  0.00000000E+00
  1.00000000E+00  0.00000000E+00  0.00000000E+00  0.00000000E+00  1.00000000E+00
  1.00000000E+00  1.00000000E+00  1.00000000E+00  1.00000000E+00  2.00000000E+00
  0.00000000E+00  0.00000000E+00  1.00000000E+00  0.00000000E+00  0.00000000E+00
  0.00000000E+00  1.00000000E+00  2.00000000E+00  0.00000000E+00  0.00000000E+00
Virial Ratio                               R      2.004501079809203E+00
SCF Energy                                 R     -2.969547523630120E+02
CIS Energy                                 R     -2.968359450718950E+02
Total Energy                               R     -2.968359450718950E+02
Post-SCF wavefunction norm                 R      1.000000000000000E+00
RMS Density                                R      1.044713581979815E-09
External E-field                           R   N=          35
  0.00000000E+00  0.00000000E+00  0.00000000E+00  0.00000000E+00  0.00000000E+00
  0.00000000E+00  0.00000000E+00  0.00000000E+00  0.00000000E+00  0.00000000E+00
  0.00000000E+00  0.00000000E+00  0.00000000E+00  0.00000000E+00  0.00000000E+00
  0.00000000E+00  0.00000000E+00  0.00000000E+00  0.00000000E+00  0.00000000E+00
  0.00000000E+00  0.00000000E+00  0.00000000E+00  0.00000000E+00  0.00000000E+00
  0.00000000E+00  0.00000000E+00  0.00000000E+00  0.00000000E+00  0.00000000E+00
  0.00000000E+00  0.00000000E+00  0.00000000E+00  0.00000000E+00  0.00000000E+00
IOpCl                                      I                0
IROHF                                      I                0
Alpha Orbital Energies                     R   N=          62
 -1.40971267E+01 -1.40971169E+01 -1.40970760E+01 -1.40970661E+01 -9.96361429E+00
 -9.96360441E+00 -1.06332175E+00 -1.06331187E+00 -6.22130314E-01 -6.22120433E-01
 -5.49472309E-01 -5.49462427E-01 -4.67275875E-01 -4.67265993E-01 -4.37966125E-01
 -4.37956243E-01 -3.33466432E-01 -3.33456550E-01 -3.23381769E-01 -3.23371888E-01
 -2.43432719E-01 -2.43422838E-01 -1.24615546E-01 -1.24605664E-01  2.88004950E-02
  2.88103766E-02  7.14825146E-02  7.14923959E-02  1.07154683E-01  1.07164564E-01
  1.33118616E-01  1.33128498E-01  2.26214309E-01  2.26224191E-01  4.47827894E-01
  4.47837774E-01  5.18344012E-01  5.18353893E-01  5.66341968E-01  5.66351850E-01
  6.06145856E-01  6.06155738E-01  6.38596209E-01  6.38606090E-01  6.71888275E-01
  6.71898156E-01  6.87341746E-01  6.87351628E-01  7.21765332E-01  7.21775214E-01
  7.60317234E-01  7.60327116E-01  7.92231818E-01  7.92241699E-01  8.81677840E-01
  8.81687721E-01  9.39124035E-01  9.39133917E-01  1.24113437E+00  1.24114425E+00
  1.27211466E+00  1.27212454E+00
Alpha MO coefficients                      R   N=        3844
  2.11403192E-13 -1.47252981E-13  1.17107046E-14  4.38730354E-13  5.11610510E-16
  2.45481647E-15  5.55548918E-15 -3.68052981E-12 -1.36020951E-15  3.90205381E-14
  2.12000836E-12 -1.99863273E-10 -6.48892453E-12 -7.72072895E-16  3.97557531E-13
 -3.80064666E-13  3.46614049E-12  2.86417677E-16 -6.22595718E-13  1.35724774E-12
  2.11368143E-13 -1.45810086E-13 -2.22348291E-10 -7.25010158E-12  8.72359747E-16
 -4.82429611E-13 -4.14206754E-13  4.19548765E-12 -9.47590073E-16  9.02930211E-13
  1.42305384E-12 -7.03699265E-04  4.88034155E-04 -3.64927368E-05 -1.46020342E-03
  2.24028305E-10 -6.97503548E-06 -1.98153671E-05  1.22562594E-02  3.92949568E-09
 -6.82687239E-05 -7.05815400E-03  6.83449876E-01  2.22151305E-02 -5.04835359E-08
 -1.38892223E-03  1.29347797E-03 -1.21133074E-02  8.61415723E-08  2.29354302E-03
 -4.57115403E-03 -7.03698967E-04  4.88035699E-04  7.23479658E-01  2.35689636E-02
  5.29890059E-08  1.54261865E-03  1.35443052E-03 -1.34088310E-02 -9.33119081E-08
 -2.79110828E-03 -4.68942707E-03 -7.03699238E-04  4.88034136E-04 -3.64927354E-05
 -1.46020337E-03  2.24054530E-10 -6.97536810E-06 -1.98153665E-05  1.22562589E-02
  3.92915850E-09 -6.82720134E-05 -7.05815373E-03  6.83448895E-01  2.22150973E-02
 -5.04844714E-08 -1.38891850E-03  1.29347647E-03 -1.21132760E-02  8.61417448E-08
  2.29353103E-03 -4.57115103E-03 -7.03698939E-04  4.88035680E-04  7.23480585E-01
  2.35689950E-02  5.29889317E-08  1.54262227E-03  1.35443192E-03 -1.34088614E-02
 -9.33123382E-08 -2.79112007E-03 -4.68942970E-03 -2.11545349E-13  1.48125021E-13
 -1.11323095E-14 -4.37293168E-13 -5.63895162E-16 -5.37550390E-15 -5.28882247E-15
  3.67366417E-12  1.50961678E-15 -5.37991059E-14 -2.11727483E-12  1.95384433E-10
  6.33828713E-12  3.92863096E-16 -3.79462648E-13  3.73087510E-13 -3.32308289E-12
 -5.90435944E-16  5.68548035E-13 -1.34182339E-12 -2.11262212E-13  1.46211989E-13
  2.26579263E-10  7.39216672E-12  2.48627911E-16  4.99382548E-13  4.21182673E-13
 -4.33021280E-12 -3.85126942E-16 -9.55740743E-13 -1.43494444E-12 -8.11922239E-15
  5.11523733E-15 -1.09373414E-15 -1.74173476E-14 -2.31722256E-16 -2.23464836E-14
 -7.75494032E-17  1.39381292E-13 -6.54995500E-17 -2.06161156E-13 -7.93007418E-14
 -5.21595037E-11 -1.77436765E-12  6.10968376E-16  2.14214855E-13 -7.68297129E-14
  1.80111724E-12 -7.06037334E-17 -7.18436663E-13  1.25032749E-13 -7.72557591E-15
  5.02797073E-15  6.79349301E-11  2.28765053E-12  2.60805932E-16  2.47245663E-13
  1.06315412E-13 -2.08737151E-12  1.63057604E-17 -7.76278783E-13 -2.29349328E-13
 -2.00358331E-05  1.38795122E-05 -1.01995698E-06 -4.15414215E-05  8.53126000E-09
  2.45228526E-04 -5.05706104E-07  3.49065017E-04  8.70807255E-08  2.42442018E-03
 -2.00774900E-04  7.23290073E-01  2.44390005E-02 -9.81607072E-08 -2.74647784E-03
  1.10411321E-03 -2.31368139E-02  3.14094260E-07  8.83146570E-03 -2.20659840E-03
 -2.00362259E-05  1.38778994E-05 -6.83249181E-01 -2.31358896E-02 -9.29001710E-08
 -2.66282864E-03 -1.02925401E-03  2.24101629E-02  3.04484346E-07  8.68635707E-03
  1.94471929E-03 -2.00367880E-05  1.38801743E-05 -1.02000657E-06 -4.15434031E-05
  8.53122966E-09  2.45228517E-04 -5.05733107E-07  3.49081647E-04  8.70807814E-08
  2.42442009E-03 -2.00784477E-04  7.23291000E-01  2.44390307E-02 -9.81619276E-08
 -2.74647972E-03  1.10411496E-03 -2.31368304E-02  3.14094979E-07  8.83146881E-03
 -2.20660460E-03 -2.00371807E-05  1.38785613E-05 -6.83248199E-01 -2.31358576E-02
 -9.28998989E-08 -2.66282655E-03 -1.02925217E-03  2.24101447E-02  3.04484061E-07
  8.68635328E-03  1.94471293E-03  3.35041662E-15 -2.56444529E-15  6.37639196E-16
  7.23826172E-15  1.86302832E-16  2.07730320E-14  2.99727964E-17 -6.00334590E-14
 -7.30921004E-16  2.05242672E-13  3.42336940E-14  5.63916045E-11  1.91265696E-12
  1.28969555E-16 -2.24064099E-13  8.32665794E-14 -1.87744935E-12 -1.69402023E-17
  7.34529700E-13 -1.51810919E-13  3.57041276E-15 -1.99946821E-15 -6.34546865E-11
 -2.14051003E-12 -5.50140613E-17 -2.38466572E-13 -9.67317291E-14  2.00274578E-12
  2.16158336E-16  7.59764694E-13  1.97709389E-13  1.73163317E-15 -7.43139175E-15
 -1.25994207E-12 -4.67088744E-14 -3.95312770E-16 -7.92139701E-17  1.82222014E-15
  3.61537112E-14  1.08437950E-15  9.72058593E-16 -2.23277404E-15 -3.32619825E-16
  1.23719134E-15 -1.41503587E-16  1.10798396E-15  2.90013127E-15 -5.55562676E-15
  1.49736936E-16 -1.96502225E-15 -5.07909481E-15  1.63310430E-15 -9.10193726E-15
  2.89926374E-16  6.68620814E-16  5.62449810E-16  1.19055861E-16  2.18531656E-15
 -6.13964807E-15  1.32821959E-16 -5.97685695E-17 -2.58911948E-15 -1.10796829E-03
  5.77753380E-03  9.94962816E-01  3.73406548E-02  2.63637999E-09  2.89116566E-07
 -1.25336867E-03 -2.71743939E-02 -3.89186503E-09 -6.82400898E-07  1.82971716E-03
  8.02582268E-05 -5.38997134E-04  1.37404486E-09  1.68367615E-05 -5.35003170E-04
  4.16130193E-03  1.39980377E-08  4.72484808E-04  1.61691750E-03 -1.10797114E-03
  5.77754126E-03  8.02481192E-05 -5.38986436E-04 -2.14295583E-10 -1.67022612E-05
 -5.34910670E-04  4.16142457E-03 -1.74068937E-08 -4.72408028E-04  1.61668054E-03
 -1.10796829E-03  5.77753381E-03  9.94962816E-01  3.73406548E-02  2.61691442E-09
  2.89120776E-07 -1.25336866E-03 -2.71743939E-02 -3.87261803E-09 -6.82402759E-07
  1.82971716E-03  8.02582268E-05 -5.38997134E-04  1.37422032E-09  1.68367615E-05
 -5.35003170E-04  4.16130193E-03  1.39960090E-08  4.72484809E-04  1.61691750E-03
 -1.10797114E-03  5.77754125E-03  8.02481191E-05 -5.38986436E-04 -2.14082107E-10
 -1.67022612E-05 -5.34910669E-04  4.16142457E-03 -1.74090449E-08 -4.72408027E-04
  1.61668054E-03 -1.45296353E-15  9.33170963E-15  1.26004479E-12  4.94618824E-14
 -1.00357571E-16 -1.66357665E-16 -1.55938370E-15 -3.97528420E-14  6.65377545E-16
 -2.12365733E-18  1.99102674E-15  1.54517890E-16 -6.51508122E-16 -2.81937856E-16
 -2.91502341E-16 -9.85263181E-16  7.10720018E-15  2.86334913E-16  5.24729569E-16
  2.68675414E-15 -2.06328198E-15  9.15435994E-15 -5.67251884E-16 -2.27283772E-16
  2.32752749E-16  2.89394253E-16 -8.22716043E-16  4.77446485E-15 -5.56222420E-16
 -1.90057914E-15  2.27632740E-15 -1.32289188E-14  1.08064675E-14  5.27461845E-14
 -1.16476306E-13 -1.65776709E-15 -2.68113635E-16  9.41764706E-14  1.39046413E-14
  9.14741196E-15 -9.71349554E-16 -3.18684473E-14  1.02545154E-13 -2.23711888E-13
  1.18998293E-15  1.51430682E-13 -5.23131632E-14 -1.61264112E-13 -2.27358025E-15
  3.27616457E-14 -3.13841326E-14 -1.37618101E-14 -3.09586311E-15  1.02719230E-13
 -2.24072598E-13  1.20821878E-15 -1.51302273E-13 -5.10292710E-14 -1.63093822E-13
 -3.36044940E-16 -3.38040212E-14 -3.42050217E-14  1.80351245E-02 -5.17785028E-03
 -7.04991667E-02  1.55989676E-01  1.41492312E-07  1.23211258E-05 -1.26177092E-01
 -1.91920006E-02 -4.75273768E-08 -4.11973148E-06  4.30555618E-02 -1.37475178E-01
  2.99818312E-01 -7.23123284E-06 -2.02598750E-01  6.91435090E-02  2.17424562E-01
 -1.62657814E-06 -4.46890367E-02  4.38426495E-02  1.80351424E-02 -5.17786004E-03
 -1.37473062E-01  2.99814830E-01  7.07715383E-06  2.02584319E-01  6.91813074E-02
  2.17414648E-01  1.52364454E-06  4.46780282E-02  4.38485851E-02  1.80351245E-02
 -5.17785037E-03 -7.04991667E-02  1.55989676E-01  1.41368061E-07  1.23211605E-05
 -1.26177092E-01 -1.91920006E-02 -4.77580406E-08 -4.11971641E-06  4.30555619E-02
 -1.37475178E-01  2.99818312E-01 -7.23134892E-06 -2.02598750E-01  6.91435089E-02
  2.17424562E-01 -1.62683623E-06 -4.46890368E-02  4.38426493E-02  1.80351423E-02
 -5.17786002E-03 -1.37473062E-01  2.99814830E-01  7.07713205E-06  2.02584319E-01
  6.91813073E-02  2.17414648E-01  1.52381723E-06  4.46780282E-02  4.38485849E-02
  1.33489264E-14 -3.15807397E-15 -5.29582111E-14  1.17754234E-13 -9.78653409E-17
  2.51416664E-17 -9.38169389E-14 -1.34910956E-14  3.92121033E-16  3.25283591E-16
  3.15511129E-14 -1.02566358E-13  2.24284495E-13  5.31241865E-17 -1.51622307E-13
  5.18905529E-14  1.60888402E-13  3.96851794E-16 -3.29668578E-14  3.23070564E-14
  1.35812759E-14 -3.86486508E-15 -1.02626329E-13  2.24546431E-13  8.95048725E-17
  1.51544497E-13  5.15360909E-14  1.61477066E-13 -2.40790517E-16  3.34221729E-14
  3.21356260E-14  5.21386316E-13  1.56834373E-13 -6.54789982E-13  1.30159783E-12
 -5.12594162E-16 -3.56862018E-17  1.00369293E-13  1.48769059E-12  5.51741354E-16
  1.84981095E-17 -1.07418030E-13  1.62870666E-13 -3.80940791E-13  3.96880448E-16
  4.36165743E-13  6.05868240E-13 -4.96294572E-13  3.24844291E-16  1.29632684E-13
  1.36662585E-13  5.20778376E-13  1.55555385E-13  1.62933559E-13 -3.81107207E-13
  3.41940791E-16 -4.36349839E-13  6.06007860E-13 -4.96300052E-13  3.89707586E-16
 -1.29545991E-13  1.36168734E-13  1.45947492E-01  4.37905332E-02 -1.83458679E-01
  3.64674458E-01  1.46856486E-07  2.77763164E-05  2.81118540E-02  4.16789234E-01
  2.03560645E-08  1.11288139E-05 -3.01529303E-02  4.55960786E-02 -1.06648453E-01
  4.16443736E-06  1.22174427E-01  1.69789769E-01 -1.38982589E-01  1.27098481E-06
  3.62753359E-02  3.82151579E-02  1.45947731E-01  4.37905910E-02  4.56255922E-02
 -1.06712802E-01 -4.46947995E-06 -1.22192878E-01  1.69735424E-01 -1.39087923E-01
 -1.30816494E-06 -3.62984364E-02  3.81947850E-02  1.45947493E-01  4.37905343E-02
 -1.83458679E-01  3.64674459E-01  1.45161415E-07  2.77765375E-05  2.81118542E-02
  4.16789232E-01  1.97607096E-08  1.11289501E-05 -3.01529288E-02  4.55960785E-02
 -1.06648453E-01  4.16404818E-06  1.22174426E-01  1.69789769E-01 -1.38982589E-01
  1.27076478E-06  3.62753357E-02  3.82151588E-02  1.45947730E-01  4.37905898E-02
  4.56255922E-02 -1.06712802E-01 -4.46992886E-06 -1.22192878E-01  1.69735424E-01
 -1.39087922E-01 -1.30823846E-06 -3.62984362E-02  3.81947852E-02 -5.21363223E-13
 -1.55338128E-13  6.54822386E-13 -1.30133653E-12 -8.22915157E-16 -9.36553422E-17
 -1.00313731E-13 -1.48837612E-12  1.30461283E-15 -3.08368414E-16  1.07800958E-13
 -1.62774598E-13  3.80522092E-13  2.09364668E-16 -4.36057172E-13 -6.05955625E-13
  4.97010432E-13 -4.51846302E-16 -1.30281681E-13 -1.36207963E-13 -5.20814856E-13
 -1.57091923E-13 -1.62837221E-13  3.80804745E-13  6.28074521E-17  4.36435692E-13
 -6.05760534E-13  4.95859415E-13 -6.31863283E-16  1.29317778E-13 -1.36369755E-13
 -1.89402282E-15 -9.36151359E-16  2.51208927E-15 -5.32866386E-15  6.08575234E-16
  2.50009793E-11  5.59083549E-16 -5.97643526E-15  3.25108630E-16  5.93626783E-12
  6.25109715E-16 -1.97289633E-11  4.28466217E-11  7.60657299E-16  1.33185235E-11
  1.34959372E-11  7.82256692E-11 -5.78544600E-16 -7.83756980E-12  9.32980804E-12
 -2.35175020E-15 -9.64991335E-16  1.97279691E-11 -4.28442847E-11  2.48054405E-16
  1.33237211E-11 -1.34979679E-11 -7.82222536E-11  2.82857828E-16 -7.83509969E-12
 -9.33294809E-12 -1.61746384E-05 -6.81878472E-06  1.91227669E-05 -3.91704063E-05
  6.87227722E-06  1.90094280E-01  3.91603732E-06 -4.81296142E-05  1.66181338E-06
  4.51345602E-02  5.14792508E-06 -1.50008313E-01  3.25782319E-01  3.52156537E-06
  1.01266636E-01  1.02615762E-01  5.94787295E-01 -2.17049790E-06 -5.95935908E-02
  7.09406469E-02 -1.59670527E-05 -6.73114386E-06  1.50000626E-01 -3.25763544E-01
  3.75628362E-06  1.01306545E-01 -1.02630117E-01 -5.94761121E-01 -1.98273588E-06
 -5.95747462E-02 -7.09638958E-02 -1.61742978E-05 -6.81860444E-06  1.91228516E-05
 -3.91707220E-05  6.87128623E-06  1.90094280E-01  3.91642931E-06 -4.81293377E-05
  1.66105100E-06  4.51345603E-02  5.14772118E-06 -1.50008313E-01  3.25782319E-01
  3.52031165E-06  1.01266637E-01  1.02615761E-01  5.94787296E-01 -2.17165623E-06
 -5.95935902E-02  7.09406460E-02 -1.59674216E-05 -6.73118553E-06  1.50000626E-01
 -3.25763543E-01  3.75530200E-06  1.01306544E-01 -1.02630117E-01 -5.94761120E-01
 -1.98324606E-06 -5.95747476E-02 -7.09638956E-02  2.22977953E-15  9.66505479E-16
 -2.58914515E-15  5.55782163E-15 -7.52985889E-16 -2.50008990E-11 -5.84755453E-16
  5.35714283E-15 -4.19053783E-16 -5.93581700E-12 -4.15514987E-16  1.97290186E-11
 -4.28464255E-11 -6.41781578E-16 -1.33187709E-11 -1.34961367E-11 -7.82268532E-11
 -1.60694532E-17  7.83835884E-12 -9.32972722E-12  1.63339233E-15  1.58645678E-15
 -1.97279540E-11  4.28437547E-11 -2.93782499E-16 -1.33238777E-11  1.34973208E-11
  7.82241563E-11  3.01898042E-16  7.83564751E-12  9.33358151E-12 -8.50721257E-13
 -3.16872638E-13 -7.79334178E-17  3.54955185E-16  2.01280087E-12  2.86362497E-16
  1.55759904E-16  6.52339294E-17  1.13882197E-12 -3.46162840E-16 -8.09307682E-17
  1.94541916E-17 -5.53878891E-17  1.44649541E-12  7.08797996E-16 -6.62596738E-16
  7.69821637E-16  7.17086713E-13 -7.65436648E-16  6.10756437E-16  8.50752426E-13
  3.16903445E-13  5.04774292E-17 -8.18839355E-17  1.44389906E-12  7.28601768E-16
  6.72631526E-16 -9.02507234E-16  7.15332070E-13 -9.45930148E-16 -7.02491248E-16