  0.11832073719355117      0.0D0
   4.5761822200843308E-002 0.0D0
   2.1164826291982250E-003 0.0D0
  -9.8150776806282085E-003 0.0D0
   1.4478816123463705E-002 0.0D0
  -5.9775689886075505E-002 0.0D0
  -1.6035687964648312E-002 0.0D0
   9.2132162882349838E-005 0.0D0
   1.2116273029343441E-003 0.0D0
  -2.2513340822600302E-003 0.0D0
  -2.0198289176131231E-003 0.0D0
 -0.25721513943208690      0.0D0
   8.2434429966113439E-012 0.0D0
   1.8455394968759010E-009 0.0D0
  -6.6966145215653403E-002 0.0D0
   3.4914752874816725E-011 0.0D0
   7.7179728173994293E-010 0.0D0
  -1.0371116293797123E-003 0.0D0
   2.9173926487036787E-010 0.0D0
   2.4894742678468897E-010 0.0D0
   1.2648384740508115E-003 0.0D0
  -8.3955810565009042E-010 0.0D0
  -9.3653013692559639E-010 0.0D0
   1.2067785069088672E-002 0.0D0
  -6.4726689407659150E-010 0.0D0
  -1.5176057955158368E-010 0.0D0
   1.8191411610782499E-002 0.0D0
   4.0662934601776777E-011 0.0D0
  -2.5931417188910411E-003 0.0D0
  -1.3649286042438877E-010 0.0D0
   1.6833364716256554E-005 0.0D0
  -1.8076778144183383E-003 0.0D0
   3.4579996848179746E-004 0.0D0
  -2.8666440544295160E-011 0.0D0
   4.5819508202226322E-004 0.0D0
  -1.6135845110568684E-011 0.0D0
  -1.2260351434273898E-007 0.0D0
   4.5248149946759583E-004 0.0D0
   4.5761822200843308E-002 0.0D0
   2.3074227232352487E-002 0.0D0
   6.9294509949694967E-003 0.0D0
  -5.2649957493506750E-003 0.0D0
  -1.4491136074161602E-002 0.0D0
   4.6878920483501132E-002 0.0D0
  -4.4407916330300688E-002 0.0D0
  -1.0116944896712769E-003 0.0D0
  -3.6890137765143698E-003 0.0D0
  -1.1901504774016282E-002 0.0D0
   1.0009583014933393E-003 0.0D0
 -0.11606471977394661      0.0D0
   3.9373980705005996E-011 0.0D0
  -1.6328369081164208E-009 0.0D0
  -2.9946308982444277E-002 0.0D0
  -2.3588188520930662E-010 0.0D0
  -9.0178098203806993E-010 0.0D0
  -2.6575233519848867E-003 0.0D0
  -7.8029966656259615E-009 0.0D0
  -8.0983171318152483E-009 0.0D0
   8.4959115970272853E-003 0.0D0
   2.6556597888057319E-008 0.0D0
   2.7422681945444796E-008 0.0D0
   9.5496242759251660E-003 0.0D0
   1.4691994219272536E-008 0.0D0
   1.5492210604261365E-008 0.0D0
   6.3258219578567173E-003 0.0D0
  -2.5855283621159567E-011 0.0D0
  -6.5058757644179956E-004 0.0D0
  -3.9556727184692830E-011 0.0D0
  -6.4520732508917781E-006 0.0D0
  -9.5015699419110343E-004 0.0D0
   1.6443928914685805E-003 0.0D0
   9.5345735415006203E-010 0.0D0
  -2.8255453579488976E-004 0.0D0
   9.8857393585373340E-010 0.0D0
  -8.7705899278287840E-008 0.0D0
  -2.8663647529680647E-004 0.0D0
   2.1164826291982250E-003 0.0D0
   6.9294509949694967E-003 0.0D0
  0.15282592054823985      0.0D0
   5.8540797189603901E-002 0.0D0
   6.4979560254620612E-005 0.0D0
   3.6509041837242389E-003 0.0D0
   1.8747804091981003E-003 0.0D0
  -1.1401056127576678E-002 0.0D0
  -4.4276695129006727E-002 0.0D0
 -0.12085834749119004      0.0D0
  -4.9668361417468034E-002 0.0D0
  -2.4887187739073601E-003 0.0D0
   2.1533815017849181E-010 0.0D0
   4.6873580116660723E-009 0.0D0
   1.5154700592818001E-002 0.0D0
  -5.2712605006818315E-010 0.0D0
   1.3497585750314689E-009 0.0D0
  -8.5598318082648936E-002 0.0D0
   2.2681373263212349E-009 0.0D0
   2.3528893386069043E-009 0.0D0
  0.26877381826995594      0.0D0
  -8.8087965436106056E-009 0.0D0
  -8.6101288924796796E-009 0.0D0
   5.7293306187546175E-002 0.0D0
  -1.8398403690968359E-009 0.0D0
  -1.6410063564440488E-009 0.0D0
   1.5064922555300694E-003 0.0D0
  -2.7228388281571123E-011 0.0D0
  -6.9067370938635092E-004 0.0D0
  -1.6166625641955630E-010 0.0D0
  -3.1274138770799369E-007 0.0D0
  -7.0523940415753207E-004 0.0D0
   3.4370503253483564E-002 0.0D0
  -2.0201667197570561E-010 0.0D0
  -1.4601354819092719E-002 0.0D0
  -1.5174334755993247E-010 0.0D0
  -2.2321814640875175E-010 0.0D0
  -1.4601485172326375E-002 0.0D0
  -9.8150776806282085E-003 0.0D0
  -5.2649957493506750E-003 0.0D0
   5.8540797189603901E-002 0.0D0
   3.8128330590425953E-002 0.0D0
   4.6412109347133655E-003 0.0D0
  -3.5215089421664326E-002 0.0D0
   2.4998210265257517E-002 0.0D0
   5.1370925004084874E-003 0.0D0
   2.3839917356274082E-002 0.0D0
   5.1824556985916252E-002 0.0D0
  -8.4443013129638839E-002 0.0D0
   3.2675001831913485E-002 0.0D0
  -1.7372937801311726E-009 0.0D0
  -9.4784607156130581E-008 0.0D0
   1.6103252406630596E-002 0.0D0
  -9.5398922630980441E-010 0.0D0
  -3.9732970441132509E-008 0.0D0
  -5.2132029939245192E-002 0.0D0
  -5.5797420674310098E-009 0.0D0
  -5.5953950012668304E-009 0.0D0
  0.13985903381241924      0.0D0
   2.0268275703040302E-008 0.0D0
   1.8626989415401013E-008 0.0D0
   3.2163026953928031E-002 0.0D0
   1.1321347009472196E-008 0.0D0
   9.2262024464284444E-009 0.0D0
  -4.2381289048123462E-004 0.0D0
   1.0947398579025875E-011 0.0D0
  -2.1561823785918360E-004 0.0D0
   2.6827573704515323E-009 0.0D0
   6.1317094056515320E-006 0.0D0
   6.9592141396086294E-005 0.0D0
   1.3389999019357311E-002 0.0D0
   7.5087209999728091E-010 0.0D0
  -5.9877132262395752E-003 0.0D0
   5.1365785517466562E-010 0.0D0
   3.8190842203280625E-008 0.0D0
  -5.9861597277340367E-003 0.0D0
   1.4478816123463705E-002 0.0D0
  -1.4491136074161602E-002 0.0D0
   6.4979560254620612E-005 0.0D0
   4.6412109347133655E-003 0.0D0
   1.0614218762750718      0.0D0
 -0.23393821086948186      0.0D0
  0.14561957898110797      0.0D0
  -5.5003593617180004E-007 0.0D0
  -2.5484399383336384E-004 0.0D0
   6.1088212637280489E-004 0.0D0
   2.4579804293423315E-003 0.0D0
   2.8149600151430799E-002 0.0D0
  -1.2915854693052858E-010 0.0D0
   3.5286906112708279E-009 0.0D0
   7.8033150290648112E-003 0.0D0
   6.8879496936752038E-011 0.0D0
   1.4410874193035564E-009 0.0D0
  -9.0405020721632038E-005 0.0D0
   1.2811672500823280E-011 0.0D0
   7.0321061278033908E-012 0.0D0
   1.0033276891513320E-003 0.0D0
  -1.3732066254983202E-010 0.0D0
   2.6685252806421119E-011 0.0D0
  -6.3739130774033313E-003 0.0D0
   1.8149641738813552E-010 0.0D0
  -9.5438463956642760E-011 0.0D0
  -9.3369456966903210E-004 0.0D0
  -1.2329179480211071E-011 0.0D0
  -7.0385451145877943E-003 0.0D0
  -9.1006353828036382E-011 0.0D0
   4.2717189541968517E-005 0.0D0
  -5.0493926251014114E-003 0.0D0
  -9.8887992588539181E-004 0.0D0
  -1.1047555857896996E-012 0.0D0
  -1.5624947584962984E-004 0.0D0
   8.4021278400934568E-013 0.0D0
   1.4068724389021678E-007 0.0D0
  -1.4969287602719259E-004 0.0D0
  -5.9775689886075505E-002 0.0D0
   4.6878920483501132E-002 0.0D0
   3.6509041837242389E-003 0.0D0
  -3.5215089421664326E-002 0.0D0
 -0.23393821086948186      0.0D0
  0.99145624589806414      0.0D0
 -0.51790777399139332      0.0D0
  -2.8156700810564206E-004 0.0D0
  -1.4519825653838236E-004 0.0D0
  -6.1365659229918063E-003 0.0D0
  -3.3925480957526732E-003 0.0D0
  -9.8729425892596478E-002 0.0D0
   1.1550122866026106E-009 0.0D0
   1.1740632938910946E-008 0.0D0
  -2.9073329317761742E-002 0.0D0
  -1.2006085441533549E-010 0.0D0
   4.9466659944026365E-009 0.0D0
  -8.5767008534156069E-004 0.0D0
   4.6847342308588400E-010 0.0D0
   4.5309509725518617E-010 0.0D0
   2.7555797883507425E-004 0.0D0
  -1.4307724604096141E-009 0.0D0
  -1.6398725685282113E-009 0.0D0
   4.2727195272160144E-002 0.0D0
  -1.7679298016411644E-009 0.0D0
  -8.6701869925257694E-011 0.0D0
  -1.9735183170985625E-002 0.0D0
   3.4696594318907315E-011 0.0D0
   6.2295001539446303E-003 0.0D0
  -3.6582939313239416E-010 0.0D0
  -1.8674048314291599E-004 0.0D0
  -2.4634722523866515E-003 0.0D0
   2.9948456084998242E-003 0.0D0
  -6.7033941272254072E-011 0.0D0
   8.1541891902176856E-004 0.0D0
   3.2480491265986097E-012 0.0D0
  -4.8976180711409227E-007 0.0D0
   7.9257977199942485E-004 0.0D0
  -1.6035687964648312E-002 0.0D0
  -4.4407916330300688E-002 0.0D0
   1.8747804091981003E-003 0.0D0
   2.4998210265257517E-002 0.0D0
  0.14561957898110797      0.0D0
 -0.51790777399139332      0.0D0
  0.29070888326858135      0.0D0
  -2.6954211369420602E-004 0.0D0
  -2.4119720309435985E-003 0.0D0
   1.1671901415136058E-004 0.0D0
   1.4603630340151326E-003 0.0D0
  0.16022383778321214      0.0D0
   5.3798370854402090E-010 0.0D0
   5.5665093853330600E-008 0.0D0
   4.4034075819432292E-002 0.0D0
   5.6930668755080145E-010 0.0D0
   2.3177443018361363E-008 0.0D0
  -1.7750247545078781E-003 0.0D0
   1.6494355574146738E-009 0.0D0
   1.5719044179988588E-009 0.0D0
   7.5119416814736564E-003 0.0D0
  -6.2691220939698548E-009 0.0D0
  -5.0558799084520435E-009 0.0D0
  -2.6562969340827847E-002 0.0D0
  -2.7356626394534555E-009 0.0D0
  -2.5296948031798560E-009 0.0D0
   3.2103131381632207E-003 0.0D0
  -5.8210246981014039E-011 0.0D0
  -2.4914445988499408E-003 0.0D0
  -1.5286926064118620E-009 0.0D0
   9.5227478488713740E-005 0.0D0
   1.9407478743134416E-003 0.0D0
  -7.3474124305930664E-004 0.0D0
  -2.0965287536176763E-010 0.0D0
  -1.0914894643005856E-003 0.0D0
  -6.9464358021477506E-011 0.0D0
   3.1924320041623295E-007 0.0D0
  -1.0766067921295251E-003 0.0D0
   9.2132162882349838E-005 0.0D0
  -1.0116944896712769E-003 0.0D0
  -1.1401056127576678E-002 0.0D0
   5.1370925004084874E-003 0.0D0
  -5.5003593617180004E-007 0.0D0
  -2.8156700810564206E-004 0.0D0
  -2.6954211369420602E-004 0.0D0
   1.0924367303299038      0.0D0
  0.33642708588563103      0.0D0
   6.8810811966845561E-002 0.0D0
  -4.5949813087432859E-002 0.0D0
   4.3063172936870442E-005 0.0D0
  -2.3528365016041273E-012 0.0D0
  -7.0524813581823093E-013 0.0D0
  -1.9969872170829989E-004 0.0D0
   1.5636109963039562E-010 0.0D0
   1.4867042036965244E-010 0.0D0
  -1.6644812486327012E-003 0.0D0
  -4.0827494918050368E-011 0.0D0
  -5.6337395709067310E-011 0.0D0
   7.4601979140115357E-003 0.0D0
   4.8246353816526176E-010 0.0D0
   3.9353483806188748E-010 0.0D0
   5.3948365969031893E-003 0.0D0
  -7.3453328920493015E-010 0.0D0
  -7.9155835743919507E-010 0.0D0
  -5.5764110536760771E-005 0.0D0
   1.4261521544928000E-011 0.0D0
   7.2267141792387853E-005 0.0D0
   1.1852449764653492E-011 0.0D0
   7.2843062778828945E-009 0.0D0
   7.2599654502890687E-005 0.0D0
  -2.6407490265618447E-003 0.0D0
   3.7021924576869480E-012 0.0D0
   5.7262004364413743E-006 0.0D0
   1.8841366070551488E-011 0.0D0
   1.9866360531987021E-009 0.0D0
   5.7011676968408473E-006 0.0D0
   1.2116273029343441E-003 0.0D0
  -3.6890137765143698E-003 0.0D0
  -4.4276695129006727E-002 0.0D0
   2.3839917356274082E-002 0.0D0
  -2.5484399383336384E-004 0.0D0
  -1.4519825653838236E-004 0.0D0
  -2.4119720309435985E-003 0.0D0
  0.33642708588563103      0.0D0
   1.2242580679093451      0.0D0
  0.37735604215556268      0.0D0
 -0.19277214216949648      0.0D0
  -1.6498067421906284E-003 0.0D0
  -6.4338107823940165E-012 0.0D0
  -7.7428748994868875E-011 0.0D0
  -8.6442059731671700E-004 0.0D0
   6.4104468705612262E-010 0.0D0
   5.7340223402645002E-010 0.0D0
  -9.2981091610868094E-003 0.0D0
  -3.3359971111136944E-010 0.0D0
  -4.3381814586053271E-010 0.0D0
   3.8557967278539565E-002 0.0D0
   2.4918606243944822E-009 0.0D0
   2.3523226671852306E-009 0.0D0
   2.4320192603800819E-002 0.0D0
  -2.8032982467028125E-009 0.0D0
  -2.8512177368186694E-009 0.0D0
   1.9924610115942876E-005 0.0D0
   5.8591713313997891E-011 0.0D0
   3.7049125621865727E-004 0.0D0
   4.9479022415478796E-011 0.0D0
  -1.5464822256760851E-007 0.0D0
   3.6327675619878691E-004 0.0D0
   7.8306322819269112E-003 0.0D0
   3.1112049122938933E-011 0.0D0
   1.8001505740248964E-002 0.0D0
   1.0696665926164871E-010 0.0D0
   6.8849082624314557E-009 0.0D0
   1.8001320727503423E-002 0.0D0
  -2.2513340822600302E-003 0.0D0
  -1.1901504774016282E-002 0.0D0
 -0.12085834749119004      0.0D0
   5.1824556985916252E-002 0.0D0
   6.1088212637280489E-004 0.0D0
  -6.1365659229918063E-003 0.0D0
   1.1671901415136058E-004 0.0D0
   6.8810811966845561E-002 0.0D0
  0.37735604215556268      0.0D0
  0.84390840925604194      0.0D0
 -0.46132565662799035      0.0D0
   8.3237523010457250E-003 0.0D0
  -4.9609490523829487E-011 0.0D0
  -9.6924729750201289E-010 0.0D0
   3.0228721613519138E-005 0.0D0
   1.7188818472063566E-009 0.0D0
   1.2505250781314637E-009 0.0D0
  -1.7151443377230718E-002 0.0D0
   5.1867165018583872E-009 0.0D0
   4.5931339996370281E-009 0.0D0
   6.5815421435483620E-002 0.0D0
  -1.0488732360625331E-008 0.0D0
  -1.4062093363067230E-008 0.0D0
   5.5828562538368501E-002 0.0D0
  -1.6374727657967741E-008 0.0D0
  -1.7989429846471048E-008 0.0D0
  -1.0108282525031563E-004 0.0D0
   1.6790600494907567E-010 0.0D0
   6.3838639526464644E-004 0.0D0
   1.8184476032020091E-010 0.0D0
   6.1270751915292612E-007 0.0D0
   6.6678898091078128E-004 0.0D0
  -2.4382305805878010E-002 0.0D0
  -5.6299725920728585E-010 0.0D0
   9.8826893057226729E-003 0.0D0
  -4.8077375399384083E-010 0.0D0
   2.7668649509424363E-008 0.0D0
   9.8826950449291875E-003 0.0D0
  -2.0198289176131231E-003 0.0D0
   1.0009583014933393E-003 0.0D0
  -4.9668361417468034E-002 0.0D0
  -8.4443013129638839E-002 0.0D0
   2.4579804293423315E-003 0.0D0
  -3.3925480957526732E-003 0.0D0
   1.4603630340151326E-003 0.0D0
  -4.5949813087432859E-002 0.0D0
 -0.19277214216949648      0.0D0
 -0.46132565662799035      0.0D0
  0.35180797913665529      0.0D0
   1.5539185949049082E-003 0.0D0
   8.2367124995934324E-010 0.0D0
   4.9748761487204978E-008 0.0D0
  -1.1654371930485158E-002 0.0D0
  -6.4869974871797496E-011 0.0D0
   2.0376199808901741E-008 0.0D0
   8.8201484348235146E-002 0.0D0
   4.7032882307336914E-009 0.0D0
   5.2785182993420580E-009 0.0D0
 -0.27381240261526429      0.0D0
  -1.8292609040522038E-008 0.0D0
  -1.8898489043580161E-008 0.0D0
  -8.6868123522635704E-002 0.0D0
  -5.5735048288789797E-009 0.0D0
  -5.6048334098254443E-009 0.0D0
  -1.4413873283317675E-003 0.0D0
  -6.3890218186176457E-011 0.0D0
   1.6718266618726297E-004 0.0D0
  -1.4392109942037986E-009 0.0D0
   5.8178145970085874E-007 0.0D0
   1.9432069720712715E-004 0.0D0
  -1.2632752839683382E-002 0.0D0
  -6.2113797072307346E-010 0.0D0
   6.2197371849400905E-003 0.0D0
  -6.9860977023640960E-010 0.0D0
  -1.3522646040629452E-008 0.0D0
   6.2200707561640093E-003 0.0D0
 -0.25721513943208690      0.0D0
 -0.11606471977394661      0.0D0
  -2.4887187739073601E-003 0.0D0
   3.2675001831913485E-002 0.0D0
   2.8149600151430799E-002 0.0D0
  -9.8729425892596478E-002 0.0D0
  0.16022383778321214      0.0D0
   4.3063172936870442E-005 0.0D0
  -1.6498067421906284E-003 0.0D0
   8.3237523010457250E-003 0.0D0
   1.5539185949049082E-003 0.0D0
  0.61367960500528673      0.0D0
  -2.2674839790285039E-010 0.0D0
  -3.5504457501934736E-009 0.0D0
  0.16096492269587503      0.0D0
  -7.2596331150152337E-012 0.0D0
  -1.4844938976495925E-009 0.0D0
   3.8940657774474280E-004 0.0D0
   3.0455609622346465E-010 0.0D0
   3.1515031660562111E-010 0.0D0
   4.3057612013044106E-003 0.0D0
  -1.2462952442336527E-009 0.0D0
  -7.7799634219782854E-010 0.0D0
  -3.6049832841086059E-002 0.0D0
  -1.6234933212573865E-011 0.0D0
  -1.4003709354363524E-009 0.0D0
  -3.7036799879564902E-002 0.0D0
  -9.7741828137310403E-011 0.0D0
   4.4218674123402309E-003 0.0D0
   3.0609486624748802E-010 0.0D0
   5.8037169092377988E-006 0.0D0
   4.6877889090329271E-003 0.0D0
  -7.6422165394547919E-004 0.0D0
  -4.1850339345328859E-011 0.0D0
  -1.5626512728840014E-003 0.0D0
  -7.0259732445713502E-011 0.0D0
   3.9815549304327107E-007 0.0D0
  -1.5441031612702589E-003 0.0D0
   8.2434429966113439E-012 0.0D0
   3.9373980705005996E-011 0.0D0
   2.1533815017849181E-010 0.0D0
  -1.7372937801311726E-009 0.0D0
  -1.2915854693052858E-010 0.0D0
   1.1550122866026106E-009 0.0D0
   5.3798370854402090E-010 0.0D0
  -2.3528365016041273E-012 0.0D0
  -6.4338107823940165E-012 0.0D0
  -4.9609490523829487E-011 0.0D0
   8.2367124995934324E-010 0.0D0
  -2.2674839790285039E-010 0.0D0
   3.0953851572095568E-004 0.0D0
   1.6604859462962536E-002 0.0D0
   3.4426733161153140E-010 0.0D0
   1.2718770467094813E-004 0.0D0
   6.9171687570901714E-003 0.0D0
  -8.5600893128639341E-011 0.0D0
  -1.3699069652105646E-004 0.0D0
   2.3368232970243411E-006 0.0D0
   1.9639687691187485E-010 0.0D0
   2.4700811982870962E-004 0.0D0
  -7.7161172587655202E-005 0.0D0
   1.8131719210634401E-009 0.0D0
   1.4100596341740473E-004 0.0D0
   1.5914973322715372E-004 0.0D0
  -1.3071282549777075E-010 0.0D0
  -9.2332400368370540E-006 0.0D0
  -1.1540567935154641E-010 0.0D0
  -4.7392926890350921E-004 0.0D0
   1.2939084694721616E-012 0.0D0
  -1.5855963567325638E-010 0.0D0
   7.9595006177910686E-012 0.0D0
   9.5463316684030129E-006 0.0D0
  -1.8054472688889716E-011 0.0D0
   3.6294824884269690E-005 0.0D0
   1.4121011699075517E-013 0.0D0
  -1.8126241212022109E-011 0.0D0
   1.8455394968759010E-009 0.0D0
  -1.6328369081164208E-009 0.0D0
   4.6873580116660723E-009 0.0D0
  -9.4784607156130581E-008 0.0D0
   3.5286906112708279E-009 0.0D0
   1.1740632938910946E-008 0.0D0
   5.5665093853330600E-008 0.0D0
  -7.0524813581823093E-013 0.0D0
  -7.7428748994868875E-011 0.0D0
  -9.6924729750201289E-010 0.0D0
   4.9748761487204978E-008 0.0D0
  -3.5504457501934736E-009 0.0D0
   1.6604859462962536E-002 0.0D0
  0.89099593050505177      0.0D0
   1.9853473194988984E-008 0.0D0
   6.9162347840812689E-003 0.0D0
  0.37116485836412960      0.0D0
   6.1882964852589328E-012 0.0D0
   2.3432662654085536E-006 0.0D0
  -1.1633794618926257E-005 0.0D0
  -2.8133000917102497E-009 0.0D0
  -7.7370355602078477E-005 0.0D0
  -3.8919523140633224E-003 0.0D0
   9.1617877066594456E-008 0.0D0
   1.5980600045330321E-004 0.0D0
   8.6777851997834332E-003 0.0D0
  -6.3044332681236039E-009 0.0D0
  -4.7370720925945733E-004 0.0D0
  -6.4251713695440863E-009 0.0D0
  -2.5430852699347951E-002 0.0D0
   7.8837576597605221E-011 0.0D0
  -8.3183095626603920E-009 0.0D0
  -1.1282601708434199E-009 0.0D0
   3.6271420636053419E-005 0.0D0
  -2.6042105925049882E-010 0.0D0
   1.9564036158458593E-003 0.0D0
   2.6998399426119187E-012 0.0D0
  -2.5682015696160326E-010 0.0D0
  -6.6966145215653403E-002 0.0D0
  -2.9946308982444277E-002 0.0D0
   1.5154700592818001E-002 0.0D0
   1.6103252406630596E-002 0.0D0
   7.8033150290648112E-003 0.0D0
  -2.9073329317761742E-002 0.0D0
   4.4034075819432292E-002 0.0D0
  -1.9969872170829989E-004 0.0D0
  -8.6442059731671700E-004 0.0D0
   3.0228721613519138E-005 0.0D0
  -1.1654371930485158E-002 0.0D0
  0.16096492269587503      0.0D0
   3.4426733161153140E-010 0.0D0
   1.9853473194988984E-008 0.0D0
   4.4011614019812802E-002 0.0D0
   2.6771525979583131E-012 0.0D0
   8.0932050462048839E-009 0.0D0
  -9.5281458120250410E-003 0.0D0
  -4.5702153531193747E-009 0.0D0
  -5.0153710450264547E-009 0.0D0
   3.2809722824068910E-002 0.0D0
   1.5707863363007074E-008 0.0D0
   1.7200120267516858E-008 0.0D0
  -2.2672422135957947E-003 0.0D0
   9.0551420092710714E-009 0.0D0
   9.6996979855526558E-009 0.0D0
  -9.4594849012407268E-003 0.0D0
  -6.5870006296911044E-011 0.0D0
   1.0683872052986555E-003 0.0D0
  -5.4480291949752169E-010 0.0D0
   2.1604653776433774E-006 0.0D0
   1.1678435377157253E-003 0.0D0
   3.3747636061060050E-003 0.0D0
   5.7337271181252233E-010 0.0D0
  -1.9570614961452871E-003 0.0D0
   6.6928611038828273E-010 0.0D0
   1.0641253295018564E-007 0.0D0
  -1.9521356970792722E-003 0.0D0
   3.4914752874816725E-011 0.0D0
  -2.3588188520930662E-010 0.0D0
  -5.2712605006818315E-010 0.0D0
  -9.5398922630980441E-010 0.0D0
   6.8879496936752038E-011 0.0D0
  -1.2006085441533549E-010 0.0D0
   5.6930668755080145E-010 0.0D0
   1.5636109963039562E-010 0.0D0
   6.4104468705612262E-010 0.0D0
   1.7188818472063566E-009 0.0D0
  -6.4869974871797496E-011 0.0D0
  -7.2596331150152337E-012 0.0D0
   1.2718770467094813E-004 0.0D0
   6.9162347840812689E-003 0.0D0
   2.6771525979583131E-012 0.0D0
   8.9121408870923260E-005 0.0D0
   2.8811303038453061E-003 0.0D0
   2.2935132186047352E-010 0.0D0
   1.6423882442032655E-003 0.0D0
   9.7414886203571273E-007 0.0D0
  -6.0111822801505166E-010 0.0D0
  -5.2058335860623080E-003 0.0D0
  -3.2141846840354279E-005 0.0D0
   5.5206362371038062E-010 0.0D0
  -2.8741541936107453E-003 0.0D0
   6.6287409341850263E-005 0.0D0
  -4.5150187734880044E-011 0.0D0
   4.9567122109413970E-006 0.0D0
  -4.2691373661138969E-011 0.0D0
  -1.9740040708499375E-004 0.0D0
   6.6465471509070392E-013 0.0D0
  -6.0881261838032393E-011 0.0D0
  -8.9781229403060469E-011 0.0D0
  -1.8573590816592638E-004 0.0D0
   9.0332356653507389E-011 0.0D0
   1.5117305500358785E-005 0.0D0
  -1.9538097644024314E-012 0.0D0
   9.2752912570450159E-011 0.0D0
   7.7179728173994293E-010 0.0D0
  -9.0178098203806993E-010 0.0D0
   1.3497585750314689E-009 0.0D0
  -3.9732970441132509E-008 0.0D0
   1.4410874193035564E-009 0.0D0
   4.9466659944026365E-009 0.0D0
   2.3177443018361363E-008 0.0D0
   1.4867042036965244E-010 0.0D0
   5.7340223402645002E-010 0.0D0
   1.2505250781314637E-009 0.0D0
   2.0376199808901741E-008 0.0D0
  -1.4844938976495925E-009 0.0D0
   6.9171687570901714E-003 0.0D0
  0.37116485836412960      0.0D0
   8.0932050462048839E-009 0.0D0
   2.8811303038453061E-003 0.0D0
  0.15465413266274175      0.0D0
   2.6616274214353893E-010 0.0D0
   9.7697073217653697E-007 0.0D0
   1.6945849941819337E-003 0.0D0
  -1.8661970965610263E-009 0.0D0
  -3.2233354038345083E-005 0.0D0
  -6.9299515366175856E-003 0.0D0
   3.7969341697654426E-008 0.0D0
   6.6569732688023350E-005 0.0D0
   6.8209147573603229E-004 0.0D0
  -2.6273686925274731E-009 0.0D0
  -1.9733455965153707E-004 0.0D0
  -2.6717202881569297E-009 0.0D0
  -1.0585054154332658E-002 0.0D0
   3.2867811092637703E-011 0.0D0
  -3.4553579934169097E-009 0.0D0
  -5.5554378990550398E-010 0.0D0
   1.5109596495019006E-005 0.0D0
  -4.9071037095352252E-012 0.0D0
   6.2527988290221885E-004 0.0D0
  -8.2367023532168468E-013 0.0D0
  -8.5666948158759039E-012 0.0D0
  -1.0371116293797123E-003 0.0D0
  -2.6575233519848867E-003 0.0D0
  -8.5598318082648936E-002 0.0D0
  -5.2132029939245192E-002 0.0D0
  -9.0405020721632038E-005 0.0D0
  -8.5767008534156069E-004 0.0D0
  -1.7750247545078781E-003 0.0D0
  -1.6644812486327012E-003 0.0D0
  -9.2981091610868094E-003 0.0D0
  -1.7151443377230718E-002 0.0D0
   8.8201484348235146E-002 0.0D0
   3.8940657774474280E-004 0.0D0
  -8.5600893128639341E-011 0.0D0
   6.1882964852589328E-012 0.0D0
  -9.5281458120250410E-003 0.0D0
   2.2935132186047352E-010 0.0D0
   2.6616274214353893E-010 0.0D0
   1.0509342926099330      0.0D0
  -8.5064804401581082E-010 0.0D0
  -8.4518418596694798E-010 0.0D0
 -0.16731246388878182      0.0D0
   2.9997751370294340E-009 0.0D0
   3.0346571621825947E-009 0.0D0
  -4.4243783779169869E-002 0.0D0
   6.5779145335924458E-010 0.0D0
   6.5959243976647358E-010 0.0D0
  -5.2527521027618249E-004 0.0D0
   6.4768611777712940E-012 0.0D0
   5.5312128119918498E-004 0.0D0
   9.3703279631324690E-012 0.0D0
  -1.5789674753873094E-008 0.0D0
   5.5240865067446038E-004 0.0D0
  -2.0509577506993837E-002 0.0D0
   9.8269603779853962E-011 0.0D0
   6.8158115613516359E-003 0.0D0
   3.9336808112390441E-011 0.0D0
  -3.4715696225886566E-009 0.0D0
   6.8158582746740276E-003 0.0D0
   2.9173926487036787E-010 0.0D0
  -7.8029966656259615E-009 0.0D0
   2.2681373263212349E-009 0.0D0
  -5.5797420674310098E-009 0.0D0
   1.2811672500823280E-011 0.0D0
   4.6847342308588400E-010 0.0D0
   1.6494355574146738E-009 0.0D0
  -4.0827494918050368E-011 0.0D0
  -3.3359971111136944E-010 0.0D0
   5.1867165018583872E-009 0.0D0
   4.7032882307336914E-009 0.0D0
   3.0455609622346465E-010 0.0D0
  -1.3699069652105646E-004 0.0D0
   2.3432662654085536E-006 0.0D0
  -4.5702153531193747E-009 0.0D0
   1.6423882442032655E-003 0.0D0
   9.7697073217653697E-007 0.0D0
  -8.5064804401581082E-010 0.0D0
   1.0572401414401276      0.0D0
   1.8557189338574235E-009 0.0D0
   3.6227794994531919E-009 0.0D0
 -0.20664746682548596      0.0D0
  -1.6867429531168736E-008 0.0D0
  -3.5688230931200070E-009 0.0D0
 -0.12739603492448459      0.0D0
   2.3926054466244957E-008 0.0D0
   1.2383748493693146E-010 0.0D0
   2.2426654297000778E-004 0.0D0
   2.6673555088469441E-010 0.0D0
  -6.6856054190411601E-008 0.0D0
   4.7391601735639644E-013 0.0D0
   3.0942881994754610E-011 0.0D0
   2.8189493616189696E-009 0.0D0
  -7.2428142244699810E-003 0.0D0
   2.0531409249106977E-009 0.0D0
   2.1947046042943128E-009 0.0D0
  -5.8521790361234512E-011 0.0D0
   2.0968387080927889E-009 0.0D0
   2.4894742678468897E-010 0.0D0
  -8.0983171318152483E-009 0.0D0
   2.3528893386069043E-009 0.0D0
  -5.5953950012668304E-009 0.0D0
   7.0321061278033908E-012 0.0D0
   4.5309509725518617E-010 0.0D0
   1.5719044179988588E-009 0.0D0
  -5.6337395709067310E-011 0.0D0
  -4.3381814586053271E-010 0.0D0
   4.5931339996370281E-009 0.0D0
   5.2785182993420580E-009 0.0D0
   3.1515031660562111E-010 0.0D0
   2.3368232970243411E-006 0.0D0
  -1.1633794618926257E-005 0.0D0
  -5.0153710450264547E-009 0.0D0
   9.7414886203571273E-007 0.0D0
   1.6945849941819337E-003 0.0D0
  -8.4518418596694798E-010 0.0D0
   1.8557189338574235E-009 0.0D0
   1.0572401664070272      0.0D0
   3.5757779435757435E-009 0.0D0
  -1.6868069853409697E-008 0.0D0
 -0.20664803392461928      0.0D0
  -3.7803687374161285E-009 0.0D0
   2.4013592990269145E-008 0.0D0
 -0.12739479669817894      0.0D0
   1.3340762965197784E-010 0.0D0
  -6.6641550106393536E-008 0.0D0
   4.2587107571094829E-011 0.0D0
   2.2068897446084315E-004 0.0D0
   1.4722567951585587E-012 0.0D0
   2.7672089852638770E-010 0.0D0
   2.4408922237967117E-009 0.0D0
   2.1795348590520539E-009 0.0D0
   1.8040289371496258E-009 0.0D0
  -7.2424868773849063E-003 0.0D0
  -4.4518832336440350E-011 0.0D0
   1.6611292053035506E-009 0.0D0
   1.2648384740508115E-003 0.0D0
   8.4959115970272853E-003 0.0D0
  0.26877381826995594      0.0D0
  0.13985903381241924      0.0D0
   1.0033276891513320E-003 0.0D0
   2.7555797883507425E-004 0.0D0
   7.5119416814736564E-003 0.0D0
   7.4601979140115357E-003 0.0D0
   3.8557967278539565E-002 0.0D0
   6.5815421435483620E-002 0.0D0
 -0.27381240261526429      0.0D0
   4.3057612013044106E-003 0.0D0
   1.9639687691187485E-010 0.0D0
  -2.8133000917102497E-009 0.0D0
   3.2809722824068910E-002 0.0D0
  -6.0111822801505166E-010 0.0D0
  -1.8661970965610263E-009 0.0D0
 -0.16731246388878182      0.0D0
   3.6227794994531919E-009 0.0D0
   3.5757779435757435E-009 0.0D0
  0.57672589609967173      0.0D0
  -1.2179875489302241E-008 0.0D0
  -1.2379671773500641E-008 0.0D0
  0.13794109348448408      0.0D0
  -4.4544500842989027E-009 0.0D0
  -4.4150172388404541E-009 0.0D0
   2.7903744464578026E-003 0.0D0
  -4.3356404046341398E-012 0.0D0
  -1.1590021499753140E-003 0.0D0
   6.5276256720197754E-011 0.0D0
   3.9383740488192577E-007 0.0D0
  -1.1407693427994733E-003 0.0D0
   6.1249303097186084E-002 0.0D0
  -2.7371030315400160E-010 0.0D0
  -2.6537791402992231E-002 0.0D0
  -1.4252956555174632E-010 0.0D0
   1.5653952403031085E-008 0.0D0
  -2.6537787062261852E-002 0.0D0
  -8.3955810565009042E-010 0.0D0
   2.6556597888057319E-008 0.0D0
  -8.8087965436106056E-009 0.0D0
   2.0268275703040302E-008 0.0D0
  -1.3732066254983202E-010 0.0D0
  -1.4307724604096141E-009 0.0D0
  -6.2691220939698548E-009 0.0D0
   4.8246353816526176E-010 0.0D0
   2.4918606243944822E-009 0.0D0
  -1.0488732360625331E-008 0.0D0
  -1.8292609040522038E-008 0.0D0
  -1.2462952442336527E-009 0.0D0
   2.4700811982870962E-004 0.0D0
  -7.7370355602078477E-005 0.0D0
   1.5707863363007074E-008 0.0D0
  -5.2058335860623080E-003 0.0D0
  -3.2233354038345083E-005 0.0D0
   2.9997751370294340E-009 0.0D0
 -0.20664746682548596      0.0D0
  -1.6868069853409697E-008 0.0D0
  -1.2179875489302241E-008 0.0D0
  0.76584323583098879      0.0D0
   3.8160622222199907E-007 0.0D0
   1.1113182256023941E-008 0.0D0
  0.42258816970379226      0.0D0
  -7.4348952308143095E-007 0.0D0
  -3.4264788469680955E-010 0.0D0
  -1.2744252261012710E-003 0.0D0
  -8.3450196565106531E-010 0.0D0
   2.2082280291358999E-006 0.0D0
  -1.8263346868943639E-012 0.0D0
  -4.4559241641890909E-011 0.0D0
  -8.2620174804098654E-009 0.0D0
   2.7373660539433735E-002 0.0D0
  -5.3476116679290484E-009 0.0D0
  -1.5832936807936270E-007 0.0D0
   2.9116295397628312E-010 0.0D0
  -5.7010884818969357E-009 0.0D0
  -9.3653013692559639E-010 0.0D0
   2.7422681945444796E-008 0.0D0
  -8.6101288924796796E-009 0.0D0
   1.8626989415401013E-008 0.0D0
   2.6685252806421119E-011 0.0D0
  -1.6398725685282113E-009 0.0D0
  -5.0558799084520435E-009 0.0D0
   3.9353483806188748E-010 0.0D0
   2.3523226671852306E-009 0.0D0
  -1.4062093363067230E-008 0.0D0
  -1.8898489043580161E-008 0.0D0
  -7.7799634219782854E-010 0.0D0
  -7.7161172587655202E-005 0.0D0
  -3.8919523140633224E-003 0.0D0
   1.7200120267516858E-008 0.0D0
  -3.2141846840354279E-005 0.0D0
  -6.9299515366175856E-003 0.0D0
   3.0346571621825947E-009 0.0D0
  -1.6867429531168736E-008 0.0D0
 -0.20664803392461928      0.0D0
  -1.2379671773500641E-008 0.0D0
   3.8160622222199907E-007 0.0D0
  0.76586214282081055      0.0D0
   1.2821719585711005E-008 0.0D0
  -7.4480706598774932E-007 0.0D0
  0.42254852523432557      0.0D0
  -4.8586394923903006E-010 0.0D0
   2.2012278371456031E-006 0.0D0
  -1.7842690437977180E-010 0.0D0
  -1.1562921390417119E-003 0.0D0
  -5.5469770711696798E-012 0.0D0
  -9.5588291088539981E-010 0.0D0
  -8.6889266760998808E-009 0.0D0
  -1.5777777596318864E-007 0.0D0
  -6.2335794248827911E-009 0.0D0
   2.7364419499821588E-002 0.0D0
   2.8227946699453075E-010 0.0D0
  -5.4872514600304514E-009 0.0D0
   1.2067785069088672E-002 0.0D0
   9.5496242759251660E-003 0.0D0
   5.7293306187546175E-002 0.0D0
   3.2163026953928031E-002 0.0D0
  -6.3739130774033313E-003 0.0D0
   4.2727195272160144E-002 0.0D0
  -2.6562969340827847E-002 0.0D0
   5.3948365969031893E-003 0.0D0
   2.4320192603800819E-002 0.0D0
   5.5828562538368501E-002 0.0D0
  -8.6868123522635704E-002 0.0D0
  -3.6049832841086059E-002 0.0D0
   1.8131719210634401E-009 0.0D0
   9.1617877066594456E-008 0.0D0
  -2.2672422135957947E-003 0.0D0
   5.5206362371038062E-010 0.0D0
   3.7969341697654426E-008 0.0D0
  -4.4243783779169869E-002 0.0D0
  -3.5688230931200070E-009 0.0D0
  -3.7803687374161285E-009 0.0D0
  0.13794109348448408      0.0D0
   1.1113182256023941E-008 0.0D0
   1.2821719585711005E-008 0.0D0
   3.8641403988904609E-002 0.0D0
   6.1033034207271147E-009 0.0D0
   8.3438326134243635E-009 0.0D0
   1.9157204332990087E-003 0.0D0
  -5.8874463854079929E-011 0.0D0
  -2.6953207537111447E-004 0.0D0
  -2.6511792020260123E-009 0.0D0
  -7.2712453226252236E-006 0.0D0
  -6.0780998676847006E-004 0.0D0
   1.3249451402710730E-002 0.0D0
   4.2879679854358824E-010 0.0D0
  -5.6555979771243554E-003 0.0D0