  0.10609281988956219      0.0D0
   3.6830555783177295E-002 0.0D0
   1.9389079992894148E-003 0.0D0
  -7.7685937624954841E-003 0.0D0
   1.3546913819743094E-002 0.0D0
  -5.6494135362044257E-002 0.0D0
  -1.2594278835084707E-002 0.0D0
   9.6090338214318310E-005 0.0D0
   1.1393992613543255E-003 0.0D0
  -1.5750875898638990E-003 0.0D0
  -8.9297802441762374E-004 0.0D0
 -0.25212735384334645      0.0D0
   2.0649118093333082E-009 0.0D0
   1.8962337690129008E-009 0.0D0
  -6.6532873794544506E-002 0.0D0
   7.1882029178548202E-010 0.0D0
   7.6577625199580769E-010 0.0D0
  -1.0198173444859447E-003 0.0D0
   2.9315868097942735E-010 0.0D0
   2.4822491934437643E-010 0.0D0
   7.6492545963400323E-004 0.0D0
  -8.8977498619196054E-010 0.0D0
  -9.1052680089574341E-010 0.0D0
   9.3721911113855694E-003 0.0D0
  -5.1628986974167193E-010 0.0D0
  -2.4420739373158611E-010 0.0D0
   1.7292950838354623E-002 0.0D0
  -9.4598746565160699E-011 0.0D0
  -1.7815821257902438E-003 0.0D0
  -1.2498950672305707E-010 0.0D0
  -1.6534863281175614E-005 0.0D0
  -2.5512802596704917E-003 0.0D0
   7.0531191393728818E-004 0.0D0
  -2.2056142289199892E-011 0.0D0
   3.8837855736821320E-004 0.0D0
  -1.3481174842921676E-011 0.0D0
   8.4990105025965001E-007 0.0D0
   4.2788897795075208E-004 0.0D0
   3.6830555783177295E-002 0.0D0
   1.7568803458549224E-002 0.0D0
   6.7915612990110787E-003 0.0D0
  -3.3607216874496182E-003 0.0D0
  -1.4354452972854505E-002 0.0D0
   4.8720069650488800E-002 0.0D0
  -3.9219957476411882E-002 0.0D0
  -1.0082022674573774E-003 0.0D0
  -3.7579006276049066E-003 0.0D0
  -1.1423149077454455E-002 0.0D0
   1.5463947119225259E-003 0.0D0
 -0.10253491264268139      0.0D0
   1.0608377226853196E-009 0.0D0
  -5.7268520342663222E-010 0.0D0
  -2.6825482346693252E-002 0.0D0
   1.6862463354624241E-010 0.0D0
  -4.9731398976046504E-010 0.0D0
  -2.6506239356608070E-003 0.0D0
  -7.8015775200526599E-009 0.0D0
  -8.0988889800549876E-009 0.0D0
   8.3185967073255169E-003 0.0D0
   2.6511993189036340E-008 0.0D0
   2.7441111378503902E-008 0.0D0
   7.2293207642763566E-003 0.0D0
   1.4788706903488024E-008 0.0D0
   1.5443058527320914E-008 0.0D0
   6.1410110446826482E-003 0.0D0
  -9.5646472156863616E-011 0.0D0
  -2.0474677416026377E-003 0.0D0
  -5.8931790069630988E-011 0.0D0
   3.6908823484689814E-005 0.0D0
  -3.3137776941649698E-004 0.0D0
   1.7896987563354183E-003 0.0D0
   9.5875399152992143E-010 0.0D0
  -3.5577791589270726E-004 0.0D0
   9.9026224849664012E-010 0.0D0
   5.2555752161773749E-007 0.0D0
  -3.3133904277514171E-004 0.0D0
   1.9389079992894148E-003 0.0D0
   6.7915612990110787E-003 0.0D0
  0.15282197406075101      0.0D0
   5.8600577855984867E-002 0.0D0
   1.2866564352089163E-004 0.0D0
   3.2851907887804632E-003 0.0D0
   2.2144659802023252E-003 0.0D0
  -1.1400955463566989E-002 0.0D0
  -4.4278736294270871E-002 0.0D0
 -0.12084596661229102      0.0D0
  -4.9656371210346648E-002 0.0D0
  -2.0927309653985047E-003 0.0D0
   4.2001279938626373E-009 0.0D0
   4.5629666414381779E-009 0.0D0
   1.5251423147841238E-002 0.0D0
   8.5685445534187549E-010 0.0D0
   1.2041316142113192E-009 0.0D0
  -8.5598229322788183E-002 0.0D0
   2.2685547962273068E-009 0.0D0
   2.3527974346647183E-009 0.0D0
  0.26877186189545549      0.0D0
  -8.8220720147780392E-009 0.0D0
  -8.6069288459053454E-009 0.0D0
   5.7221930344049571E-002 0.0D0
  -1.8405107608927801E-009 0.0D0
  -1.6586284690116644E-009 0.0D0
   1.5130201081240942E-003 0.0D0
  -1.3764408300599301E-010 0.0D0
  -7.3352747296132048E-004 0.0D0
  -1.6000378153698422E-010 0.0D0
   1.0644648471234597E-006 0.0D0
  -6.8405378385597655E-004 0.0D0
   3.4372117977310018E-002 0.0D0
  -1.9223022776809880E-010 0.0D0
  -1.4603524918902594E-002 0.0D0
  -1.5158970096853032E-010 0.0D0
   1.3158124375828748E-008 0.0D0
  -1.4603032910893488E-002 0.0D0
  -7.7685937624954841E-003 0.0D0
  -3.3607216874496182E-003 0.0D0
   5.8600577855984867E-002 0.0D0
   3.7197406139032427E-002 0.0D0
   3.2655975260729190E-003 0.0D0
  -2.8548177979178076E-002 0.0D0
   1.9300202152189510E-002 0.0D0
   5.1356133212729369E-003 0.0D0
   2.3869985083079352E-002 0.0D0
   5.1644350022182234E-002 0.0D0
  -8.4629195837839330E-002 0.0D0
   2.7605406906866255E-002 0.0D0
  -7.8585895100683090E-008 0.0D0
  -8.9565600003544093E-008 0.0D0
   1.4878293544699295E-002 0.0D0
  -2.7638216739762357E-008 0.0D0
  -3.5664412659781478E-008 0.0D0
  -5.2133451663721034E-002 0.0D0
  -5.5876991984633170E-009 0.0D0
  -5.5932518954172392E-009 0.0D0
  0.13989646455561447      0.0D0
   2.0521207211437028E-008 0.0D0
   1.8552795953649677E-008 0.0D0
   3.3279080787275539E-002 0.0D0
   1.1343001682866876E-008 0.0D0
   9.6006616080519158E-009 0.0D0
  -6.8697507543497461E-004 0.0D0
   2.1369733848109495E-009 0.0D0
   6.0214137235289184E-004 0.0D0
   2.5733554937524303E-009 0.0D0
  -1.9709640184174549E-005 0.0D0
  -3.1436691872655464E-004 0.0D0
   1.3368436783133082E-002 0.0D0
   5.6222965018033563E-010 0.0D0
  -5.9551492350633888E-003 0.0D0
   5.1639021191089642E-010 0.0D0
  -1.7842741566969793E-007 0.0D0
  -5.9636706606567974E-003 0.0D0
   1.3546913819743094E-002 0.0D0
  -1.4354452972854505E-002 0.0D0
   1.2866564352089163E-004 0.0D0
   3.2655975260729190E-003 0.0D0
   1.0621122325310983      0.0D0
 -0.24465712968051542      0.0D0
  0.14218091971922597      0.0D0
  -2.4398680353516613E-006 0.0D0
  -2.1827700526990136E-004 0.0D0
   3.6158819672233030E-004 0.0D0
   1.9705292395635417E-003 0.0D0
   2.5958710222613646E-002 0.0D0
   2.6949202077914629E-009 0.0D0
   2.9638707023251528E-009 0.0D0
   7.3515694274266545E-003 0.0D0
   8.5196947970351620E-010 0.0D0
   1.3346171009665277E-009 0.0D0
  -9.7400785173466591E-005 0.0D0
   1.0506327007912335E-011 0.0D0
   7.7727417800912236E-012 0.0D0
   1.2480810669001515E-003 0.0D0
  -7.0231937490021420E-011 0.0D0
   3.3689948574749211E-012 0.0D0
  -4.6017084787667974E-003 0.0D0
   4.6271491189346502E-011 0.0D0
  -5.5756871248256004E-011 0.0D0
  -2.8808911822948962E-003 0.0D0
  -5.4325888867911463E-011 0.0D0
   4.1491373289975482E-005 0.0D0
  -8.1785109794419798E-011 0.0D0
  -1.5393796501571950E-004 0.0D0
  -7.1171387815157179E-003 0.0D0
  -1.0758453037291464E-003 0.0D0
  -1.8328252959421650E-012 0.0D0
  -1.0593401289049323E-004 0.0D0
   3.3791552095700014E-012 0.0D0
  -7.7509857668052800E-007 0.0D0
  -1.4196914958539456E-004 0.0D0
  -5.6494135362044257E-002 0.0D0
   4.8720069650488800E-002 0.0D0
   3.2851907887804632E-003 0.0D0
  -2.8548177979178076E-002 0.0D0
 -0.24465712968051542      0.0D0
   1.0671924185410169      0.0D0
 -0.52378182275932950      0.0D0
  -2.7474009323611451E-004 0.0D0
  -2.8760766689748423E-004 0.0D0
  -5.3007846844644931E-003 0.0D0
  -2.1181016566123212E-003 0.0D0
  -9.4680849804581829E-002 0.0D0
   8.9202813050266361E-009 0.0D0
   1.3408810889343404E-008 0.0D0
  -2.9435534516738679E-002 0.0D0
   3.4378092690364305E-009 0.0D0
   4.5243466176527226E-009 0.0D0
  -8.2546490358287631E-004 0.0D0
   4.8001245785926596E-010 0.0D0
   4.4957447108613052E-010 0.0D0
  -9.3933281892291534E-004 0.0D0
  -1.7599063298324667E-009 0.0D0
  -1.5343665758132923E-009 0.0D0
   3.4612861126576341E-002 0.0D0
  -1.2536483004005535E-009 0.0D0
  -3.2556336572483031E-010 0.0D0
  -7.9282537373188411E-003 0.0D0
  -3.2411031000914398E-010 0.0D0
  -2.0617607003838471E-002 0.0D0
  -3.9540130075082264E-010 0.0D0
   6.5669647069373390E-004 0.0D0
   9.9209931452855886E-003 0.0D0
   3.4178801828301732E-003 0.0D0
  -1.3831656993434124E-011 0.0D0
   5.8057420552912306E-004 0.0D0
  -7.0830213947258017E-012 0.0D0
   3.0520755295372256E-006 0.0D0
   7.2246590767862729E-004 0.0D0
  -1.2594278835084707E-002 0.0D0
  -3.9219957476411882E-002 0.0D0
   2.2144659802023252E-003 0.0D0
   1.9300202152189510E-002 0.0D0
  0.14218091971922597      0.0D0
 -0.52378182275932950      0.0D0
  0.27348012967463575      0.0D0
  -2.7684955980658983E-004 0.0D0
  -2.2627982258622871E-003 0.0D0
  -7.9315450969630677E-004 0.0D0
   2.4255003607341223E-004 0.0D0
  0.14726296606598865      0.0D0
   4.2584762698668665E-008 0.0D0
   5.1858239046924388E-008 0.0D0
   4.1599772080524518E-002 0.0D0
   1.4701590355627883E-008 0.0D0
   2.0932892042247679E-008 0.0D0
  -1.7944091111056449E-003 0.0D0
   1.6469466452277617E-009 0.0D0
   1.5732456881635626E-009 0.0D0
   8.1977968726683510E-003 0.0D0
  -6.2090553130144724E-009 0.0D0
  -5.0917082829592132E-009 0.0D0
  -1.9628721020031194E-002 0.0D0
  -3.1206978826081272E-009 0.0D0
  -2.5758922430255545E-009 0.0D0
  -2.7784305107788529E-003 0.0D0
  -1.1056942000817857E-009 0.0D0
   1.1120596115421610E-002 0.0D0
  -1.4657823366499390E-009 0.0D0
  -3.2955589924262561E-004 0.0D0
  -4.2045629076574139E-003 0.0D0
  -9.9764824566144330E-004 0.0D0
  -1.2548319045394360E-010 0.0D0
  -8.9684283520582173E-004 0.0D0
  -6.4481273375980702E-011 0.0D0
  -1.8958590909385059E-006 0.0D0
  -9.8498398804498484E-004 0.0D0
   9.6090338214318310E-005 0.0D0
  -1.0082022674573774E-003 0.0D0
  -1.1400955463566989E-002 0.0D0
   5.1356133212729369E-003 0.0D0
  -2.4398680353516613E-006 0.0D0
  -2.7474009323611451E-004 0.0D0
  -2.7684955980658983E-004 0.0D0
   1.0924367279461937      0.0D0
  0.33642713313561801      0.0D0
   6.8810492207976262E-002 0.0D0
  -4.5950220382052369E-002 0.0D0
   3.6741834620759589E-005 0.0D0
   4.8733329501240342E-013 0.0D0
  -1.0399348066929937E-012 0.0D0
  -2.0108130361105129E-004 0.0D0
   1.5730438118982692E-010 0.0D0
   1.4855854004790582E-010 0.0D0
  -1.6644859627824259E-003 0.0D0
  -4.0828283165253936E-011 0.0D0
  -5.6336916052026157E-011 0.0D0
   7.4603355308106361E-003 0.0D0
   4.8248758104735565E-010 0.0D0
   3.9351952470152170E-010 0.0D0
   5.3966511752094500E-003 0.0D0
  -7.3460968188580463E-010 0.0D0
  -7.9152000092743456E-010 0.0D0
  -5.6128701955356663E-005 0.0D0
   1.4213184577951562E-011 0.0D0
   7.3466253907780358E-005 0.0D0
   1.1855090940257938E-011 0.0D0
  -2.9109820012212477E-008 0.0D0
   7.2106698095508853E-005 0.0D0
  -2.6408330917600600E-003 0.0D0
   3.7068817012144415E-012 0.0D0
   5.7772125684284811E-006 0.0D0
   1.8841253701096828E-011 0.0D0
   1.5391473675312363E-009 0.0D0
   5.7313681992651817E-006 0.0D0
   1.1393992613543255E-003 0.0D0
  -3.7579006276049066E-003 0.0D0
  -4.4278736294270871E-002 0.0D0
   2.3869985083079352E-002 0.0D0
  -2.1827700526990136E-004 0.0D0
  -2.8760766689748423E-004 0.0D0
  -2.2627982258622871E-003 0.0D0
  0.33642713313561801      0.0D0
   1.2242571342914290      0.0D0
  0.37736245583872352      0.0D0
 -0.19276356426569510      0.0D0
  -1.5423959531126439E-003 0.0D0
  -1.0984437011572877E-010 0.0D0
  -6.3337376965655799E-011 0.0D0
  -8.4207487700129120E-004 0.0D0
   6.0607601648002378E-010 0.0D0
   5.7961014066045536E-010 0.0D0
  -9.2980055729537086E-003 0.0D0
  -3.3358724878183922E-010 0.0D0
  -4.3382635747806715E-010 0.0D0
   3.8554842858611223E-002 0.0D0
   2.4914874515688167E-009 0.0D0
   2.3525813855500375E-009 0.0D0
   2.4283130188945505E-002 0.0D0
  -2.8016626000490758E-009 0.0D0
  -2.8517838297690306E-009 0.0D0
   2.9488549388415599E-005 0.0D0
   6.0808173998304009E-011 0.0D0
   3.4455301848693577E-004 0.0D0
   4.9236314511110921E-011 0.0D0
   6.2731897351317397E-007 0.0D0
   3.7369491991264963E-004 0.0D0
   7.8324371760327468E-003 0.0D0
   3.0907855233162901E-011 0.0D0
   1.8000489318186437E-002 0.0D0
   1.0698035840690827E-010 0.0D0
   1.6376236696647548E-008 0.0D0
   1.8000745723496477E-002 0.0D0
  -1.5750875898638990E-003 0.0D0
  -1.1423149077454455E-002 0.0D0
 -0.12084596661229102      0.0D0
   5.1644350022182234E-002 0.0D0
   3.6158819672233030E-004 0.0D0
  -5.3007846844644931E-003 0.0D0
  -7.9315450969630677E-004 0.0D0
   6.8810492207976262E-002 0.0D0
  0.37736245583872352      0.0D0
  0.84386747009380236      0.0D0
 -0.46136759380895326      0.0D0
   7.0400212466444510E-003 0.0D0
  -6.4350280024347623E-010 0.0D0
  -8.7126209260760753E-010 0.0D0
  -2.7929649440511153E-004 0.0D0
   1.5091983282710047E-009 0.0D0
   1.3127217059785119E-009 0.0D0
  -1.7151811349827739E-002 0.0D0
   5.1865529687757320E-009 0.0D0
   4.5932216649204652E-009 0.0D0
   6.5823638676325763E-002 0.0D0
  -1.0483593316451144E-008 0.0D0
  -1.4064960524365794E-008 0.0D0
   5.6045178597311125E-002 0.0D0
  -1.6382028418054209E-008 0.0D0
  -1.7980550924070590E-008 0.0D0
  -9.1248318138944379E-005 0.0D0
   1.8727333557946629E-010 0.0D0
   7.3803737546669136E-004 0.0D0
   1.7859379243522099E-010 0.0D0
  -2.5384238284610766E-006 0.0D0
   6.1995087948833630E-004 0.0D0
  -2.4389870933226775E-002 0.0D0
  -5.6464611010254253E-010 0.0D0
   9.8893795848655711E-003 0.0D0
  -4.8057957056619516E-010 0.0D0
  -1.5996762412014102E-008 0.0D0
   9.8873545250450692E-003 0.0D0
  -8.9297802441762374E-004 0.0D0
   1.5463947119225259E-003 0.0D0
  -4.9656371210346648E-002 0.0D0
  -8.4629195837839330E-002 0.0D0
   1.9705292395635417E-003 0.0D0
  -2.1181016566123212E-003 0.0D0
   2.4255003607341223E-004 0.0D0
  -4.5950220382052369E-002 0.0D0
 -0.19276356426569510      0.0D0
 -0.46136759380895326      0.0D0
  0.35180584955432637      0.0D0
  -1.5549491354832311E-003 0.0D0
   4.1494589104270987E-008 0.0D0
   4.6916371732266379E-008 0.0D0
  -1.2478325615052721E-002 0.0D0
   1.4039092020355092E-008 0.0D0
   1.8218085939551142E-008 0.0D0
   8.8202097517928846E-002 0.0D0
   4.7071230254876456E-009 0.0D0
   5.2776149397808302E-009 0.0D0
 -0.27384099210488821      0.0D0
  -1.8415147536493272E-008 0.0D0
  -1.8866400192203902E-008 0.0D0
  -8.6664058533500482E-002 0.0D0
  -5.6095186279533328E-009 0.0D0
  -5.7858482978720366E-009 0.0D0
  -1.2954685551132372E-003 0.0D0
  -1.1816941582189033E-009 0.0D0
   1.9647000648292706E-004 0.0D0
  -1.3819897461377899E-009 0.0D0
  -1.0488923725708207E-006 0.0D0
   1.4774749117119832E-004 0.0D0
  -1.2624565557001229E-002 0.0D0
  -5.2201624932604588E-010 0.0D0
   6.2282226697367169E-003 0.0D0
  -6.9976527514972910E-010 0.0D0
  -1.3195823482384753E-008 0.0D0
   6.2285711901393197E-003 0.0D0
 -0.25212735384334645      0.0D0
 -0.10253491264268139      0.0D0
  -2.0927309653985047E-003 0.0D0
   2.7605406906866255E-002 0.0D0
   2.5958710222613646E-002 0.0D0
  -9.4680849804581829E-002 0.0D0
  0.14726296606598865      0.0D0
   3.6741834620759589E-005 0.0D0
  -1.5423959531126439E-003 0.0D0
   7.0400212466444510E-003 0.0D0
  -1.5549491354832311E-003 0.0D0
  0.64985312441319543      0.0D0
  -2.8300246785698828E-009 0.0D0
  -2.9861160068500117E-009 0.0D0
  0.17289009693429955      0.0D0
  -1.0403147645251701E-009 0.0D0
  -1.0319889475096000E-009 0.0D0
   3.3494467329573535E-004 0.0D0
   2.9889554039821427E-010 0.0D0
   3.1718161205218198E-010 0.0D0
   6.1414636269827884E-003 0.0D0
  -1.0639983402727058E-009 0.0D0
  -8.4863697460960709E-010 0.0D0
  -2.9072553509016132E-002 0.0D0
  -4.4133413540450293E-010 0.0D0
  -1.1681433055663546E-009 0.0D0
  -4.1372192104864439E-002 0.0D0
   1.9549569550250816E-010 0.0D0
   8.9548304863878870E-003 0.0D0
   2.6789262520990261E-010 0.0D0
  -1.0377488784708003E-004 0.0D0
   4.1308711618616451E-003 0.0D0
  -1.7180818534960822E-003 0.0D0
  -6.0320444745236743E-011 0.0D0
  -1.4374483950656113E-003 0.0D0
  -7.2784717133143724E-011 0.0D0
  -2.7942307836756005E-006 0.0D0
  -1.5673599790946393E-003 0.0D0
   2.0649118093333082E-009 0.0D0
   1.0608377226853196E-009 0.0D0
   4.2001279938626373E-009 0.0D0
  -7.8585895100683090E-008 0.0D0
   2.6949202077914629E-009 0.0D0
   8.9202813050266361E-009 0.0D0
   4.2584762698668665E-008 0.0D0
   4.8733329501240342E-013 0.0D0
  -1.0984437011572877E-010 0.0D0
  -6.4350280024347623E-010 0.0D0
   4.1494589104270987E-008 0.0D0
  -2.8300246785698828E-009 0.0D0
  0.98729230288119685      0.0D0
  -1.2481823987485552E-003 0.0D0
   1.7774601279234301E-008 0.0D0
  0.34297544743351621      0.0D0
   3.8134222692251372E-004 0.0D0
  -9.5017168014643829E-012 0.0D0
  -4.2486419582513346E-005 0.0D0
   4.3541802480970055E-007 0.0D0
  -2.2426784994364359E-009 0.0D0
  -2.7718630162489599E-003 0.0D0
  -1.5488782459379375E-005 0.0D0
   7.5010273856908206E-008 0.0D0
  -5.7153276520045294E-004 0.0D0
   1.1812278546549143E-004 0.0D0
  -5.0214664672963364E-009 0.0D0
  -2.7130283650923261E-002 0.0D0
  -6.2389878476134151E-009 0.0D0
   8.2102244548926259E-006 0.0D0
   7.9820451135184044E-011 0.0D0
  -4.9044539788659402E-009 0.0D0
  -1.0495134140847135E-009 0.0D0
   2.4129898717300115E-003 0.0D0
  -2.5313976317443731E-010 0.0D0
  -5.5010880326814113E-006 0.0D0
   5.7147854350312955E-012 0.0D0
  -2.5248970544189917E-010 0.0D0
   1.8962337690129008E-009 0.0D0
  -5.7268520342663222E-010 0.0D0
   4.5629666414381779E-009 0.0D0
  -8.9565600003544093E-008 0.0D0
   2.9638707023251528E-009 0.0D0
   1.3408810889343404E-008 0.0D0
   5.1858239046924388E-008 0.0D0
  -1.0399348066929937E-012 0.0D0
  -6.3337376965655799E-011 0.0D0
  -8.7126209260760753E-010 0.0D0
   4.6916371732266379E-008 0.0D0
  -2.9861160068500117E-009 0.0D0
  -1.2481823987485552E-003 0.0D0
  0.92025060136127612      0.0D0
   1.8979060153741393E-008 0.0D0
   3.8122784550533777E-004 0.0D0
  0.36345734265580210      0.0D0
   3.1297706259462743E-012 0.0D0
   4.3876486570371451E-007 0.0D0
  -1.9100973282950494E-005 0.0D0
  -2.6815091303079902E-009 0.0D0
  -1.5596205886680942E-005 0.0D0
  -3.6034623832103666E-003 0.0D0
   8.6311916188005129E-008 0.0D0
   1.1842287602735213E-004 0.0D0
   5.7703327921610021E-003 0.0D0
  -5.8522389554182722E-009 0.0D0
   8.2037186029068134E-006 0.0D0
  -5.9970070440685273E-009 0.0D0
  -2.6686188718262869E-002 0.0D0
  -4.3802562413905455E-011 0.0D0
  -7.6215796590240305E-009 0.0D0
  -1.0537463064149365E-009 0.0D0
  -5.5038052824612213E-006 0.0D0
  -1.9901377772272295E-010 0.0D0
   2.1178026106578882E-003 0.0D0
   2.8629995697368355E-012 0.0D0
  -1.8728012177931856E-010 0.0D0
  -6.6532873794544506E-002 0.0D0
  -2.6825482346693252E-002 0.0D0
   1.5251423147841238E-002 0.0D0
   1.4878293544699295E-002 0.0D0
   7.3515694274266545E-003 0.0D0
  -2.9435534516738679E-002 0.0D0
   4.1599772080524518E-002 0.0D0
  -2.0108130361105129E-004 0.0D0
  -8.4207487700129120E-004 0.0D0
  -2.7929649440511153E-004 0.0D0
  -1.2478325615052721E-002 0.0D0
  0.17289009693429955      0.0D0
   1.7774601279234301E-008 0.0D0
   1.8979060153741393E-008 0.0D0
   4.7795306837945119E-002 0.0D0
   6.0114541128953132E-009 0.0D0
   7.3794892485336047E-009 0.0D0
  -9.5431293497369174E-003 0.0D0
  -4.5700013630262882E-009 0.0D0
  -5.0152458895841462E-009 0.0D0
   3.3321825770832231E-002 0.0D0
   1.5701287283543735E-008 0.0D0
   1.7195864023897705E-008 0.0D0
  -5.4603225584035596E-004 0.0D0
   8.9283047206284602E-009 0.0D0
   9.6832502940777774E-009 0.0D0
  -1.0780942104374887E-002 0.0D0
  -4.8596798993919526E-010 0.0D0
   2.3964828882601930E-003 0.0D0
  -5.3458917047447394E-010 0.0D0
  -3.0300900860807387E-005 0.0D0
   9.8789589882221124E-004 0.0D0
   3.1152052049700663E-003 0.0D0
   6.1248792317310966E-010 0.0D0
  -1.9294458632553382E-003 0.0D0
   6.6838650129059028E-010 0.0D0
  -7.5405061726692721E-007 0.0D0
  -1.9645352242966710E-003 0.0D0
   7.1882029178548202E-010 0.0D0
   1.6862463354624241E-010 0.0D0
   8.5685445534187549E-010 0.0D0
  -2.7638216739762357E-008 0.0D0
   8.5196947970351620E-010 0.0D0
   3.4378092690364305E-009 0.0D0
   1.4701590355627883E-008 0.0D0
   1.5730438118982692E-010 0.0D0
   6.0607601648002378E-010 0.0D0
   1.5091983282710047E-009 0.0D0
   1.4039092020355092E-008 0.0D0
  -1.0403147645251701E-009 0.0D0
  0.34297544743351621      0.0D0
   3.8122784550533777E-004 0.0D0
   6.0114541128953132E-009 0.0D0
  0.11918358344693239      0.0D0
   4.5430107329371832E-004 0.0D0
   2.5584401227765081E-010 0.0D0
   1.6752157241194604E-003 0.0D0
   2.5649255840349897E-007 0.0D0
  -1.4500937895113555E-009 0.0D0
  -6.2544819732089042E-003 0.0D0
  -8.7941130569771602E-006 0.0D0
   2.5974067640562045E-008 0.0D0
  -3.1217860660348574E-003 0.0D0
   4.6020731868077850E-005 0.0D0
  -1.7512911973384889E-009 0.0D0
  -9.4160847877889364E-003 0.0D0
  -2.1703919596021125E-009 0.0D0
  -2.0776797612177673E-005 0.0D0
   2.7903634123359832E-011 0.0D0
  -1.7043479687030723E-009 0.0D0
  -4.5418749264701575E-010 0.0D0
   6.4915159480410261E-004 0.0D0
   9.6942228457938067E-012 0.0D0
  -4.3847654272307334E-008 0.0D0
  -1.7715137692318351E-014 0.0D0
   1.2407673347834171E-011 0.0D0
   7.6577625199580769E-010 0.0D0
  -4.9731398976046504E-010 0.0D0
   1.2041316142113192E-009 0.0D0
  -3.5664412659781478E-008 0.0D0
   1.3346171009665277E-009 0.0D0
   4.5243466176527226E-009 0.0D0
   2.0932892042247679E-008 0.0D0
   1.4855854004790582E-010 0.0D0
   5.7961014066045536E-010 0.0D0
   1.3127217059785119E-009 0.0D0
   1.8218085939551142E-008 0.0D0
  -1.0319889475096000E-009 0.0D0
   3.8134222692251372E-004 0.0D0
  0.36345734265580210      0.0D0
   7.3794892485336047E-009 0.0D0
   4.5430107329371832E-004 0.0D0
  0.14358677125669980      0.0D0
   2.6295635254306894E-010 0.0D0
   2.5784498963617561E-007 0.0D0
   1.6889254250344091E-003 0.0D0
  -1.7464492399776839E-009 0.0D0
  -8.8373505619934240E-006 0.0D0
  -6.7265204860298532E-003 0.0D0
   3.3930341972194181E-008 0.0D0
   4.6142231910496550E-005 0.0D0
  -6.5073017752628791E-004 0.0D0
  -2.3152951878599526E-009 0.0D0
  -2.0785423973722963E-005 0.0D0
  -2.3536647048263840E-009 0.0D0
  -1.0531118422601751E-002 0.0D0
  -1.7678566763369528E-011 0.0D0
  -3.0112232972111052E-009 0.0D0
  -5.0464408554200785E-010 0.0D0
  -4.4910985744029555E-008 0.0D0
   2.3671210942775014E-011 0.0D0
   6.4692072371144238E-004 0.0D0
  -8.1316483853269168E-013 0.0D0
   2.3036244304382647E-011 0.0D0
  -1.0198173444859447E-003 0.0D0
  -2.6506239356608070E-003 0.0D0
  -8.5598229322788183E-002 0.0D0
  -5.2133451663721034E-002 0.0D0
  -9.7400785173466591E-005 0.0D0
  -8.2546490358287631E-004 0.0D0
  -1.7944091111056449E-003 0.0D0
  -1.6644859627824259E-003 0.0D0
  -9.2980055729537086E-003 0.0D0
  -1.7151811349827739E-002 0.0D0
   8.8202097517928846E-002 0.0D0
   3.3494467329573535E-004 0.0D0
  -9.5017168014643829E-012 0.0D0
   3.1297706259462743E-012 0.0D0
  -9.5431293497369174E-003 0.0D0
   2.5584401227765081E-010 0.0D0
   2.6295635254306894E-010 0.0D0
   1.0509343151155104      0.0D0
  -8.5063931075636537E-010 0.0D0
  -8.4518542634037157E-010 0.0D0
 -0.16731336312672820      0.0D0
   2.9994994127904887E-009 0.0D0
   3.0347038257213750E-009 0.0D0
  -4.4242545307262092E-002 0.0D0
   6.5781178696548300E-010 0.0D0
   6.5926928726746497E-010 0.0D0
  -5.2086545963033956E-004 0.0D0
   4.3345080051696017E-012 0.0D0
   5.4935419832507484E-004 0.0D0
   9.4069747494647703E-012 0.0D0
   8.4816422075041844E-008 0.0D0
   5.5331988974682031E-004 0.0D0
  -2.0509239300536809E-002 0.0D0
   9.8461063304772630E-011 0.0D0
   6.8158992974472199E-003 0.0D0
   3.9340425913945832E-011 0.0D0
  -2.5103930583790515E-009 0.0D0
   6.8159907080678492E-003 0.0D0
   2.9315868097942735E-010 0.0D0
  -7.8015775200526599E-009 0.0D0
   2.2685547962273068E-009 0.0D0
  -5.5876991984633170E-009 0.0D0
   1.0506327007912335E-011 0.0D0
   4.8001245785926596E-010 0.0D0
   1.6469466452277617E-009 0.0D0
  -4.0828283165253936E-011 0.0D0
  -3.3358724878183922E-010 0.0D0
   5.1865529687757320E-009 0.0D0
   4.7071230254876456E-009 0.0D0
   2.9889554039821427E-010 0.0D0
  -4.2486419582513346E-005 0.0D0
   4.3876486570371451E-007 0.0D0
  -4.5700013630262882E-009 0.0D0
   1.6752157241194604E-003 0.0D0
   2.5784498963617561E-007 0.0D0
  -8.5063931075636537E-010 0.0D0
   1.0572401504886788      0.0D0
   1.6391851234080585E-009 0.0D0
   3.6224890991396322E-009 0.0D0
 -0.20664775587377854      0.0D0
  -9.7985913879504793E-009 0.0D0
  -3.5611228145131645E-009 0.0D0
 -0.12739610322447056      0.0D0
   1.6195662394299180E-008 0.0D0
   1.2340371637997646E-010 0.0D0
   2.2166968268017047E-004 0.0D0
   2.6624521129132184E-010 0.0D0
  -1.5379022354570002E-008 0.0D0
   4.7745054046817875E-013 0.0D0
   3.0404002618350430E-011 0.0D0
   2.8188790542094127E-009 0.0D0
  -7.2425840910772940E-003 0.0D0
   2.0531406741014490E-009 0.0D0
  -2.1745496805494468E-009 0.0D0
  -5.8521274658394286E-011 0.0D0
   2.0968377143734233E-009 0.0D0
   2.4822491934437643E-010 0.0D0
  -8.0988889800549876E-009 0.0D0
   2.3527974346647183E-009 0.0D0
  -5.5932518954172392E-009 0.0D0
   7.7727417800912236E-012 0.0D0
   4.4957447108613052E-010 0.0D0
   1.5732456881635626E-009 0.0D0
  -5.6336916052026157E-011 0.0D0
  -4.3382635747806715E-010 0.0D0
   4.5932216649204652E-009 0.0D0
   5.2776149397808302E-009 0.0D0
   3.1718161205218198E-010 0.0D0
   4.3541802480970055E-007 0.0D0
  -1.9100973282950494E-005 0.0D0
  -5.0152458895841462E-009 0.0D0
   2.5649255840349897E-007 0.0D0
   1.6889254250344091E-003 0.0D0
  -8.4518542634037157E-010 0.0D0
   1.6391851234080585E-009 0.0D0
   1.0572401638719171      0.0D0
   3.5758277314942071E-009 0.0D0
  -9.7994719754513793E-009 0.0D0
 -0.20664794484632013      0.0D0
  -3.7825473881789243E-009 0.0D0
   1.6270761667607967E-008 0.0D0
 -0.12739527671463224      0.0D0
   1.3358851883186658E-010 0.0D0
  -1.5285006539833966E-008 0.0D0
   4.2556270928720165E-011 0.0D0
   2.2084821346154385E-004 0.0D0
   1.4607287972634885E-012 0.0D0
   2.7698776772579267E-010 0.0D0
   2.4409186139888251E-009 0.0D0
  -2.1805033366012369E-009 0.0D0
   1.8040284741360840E-009 0.0D0
  -7.2424907119013060E-003 0.0D0
  -4.4518781929779229E-011 0.0D0
   1.6611324852164780E-009 0.0D0
   7.6492545963400323E-004 0.0D0
   8.3185967073255169E-003 0.0D0
  0.26877186189545549      0.0D0
  0.13989646455561447      0.0D0
   1.2480810669001515E-003 0.0D0
  -9.3933281892291534E-004 0.0D0
   8.1977968726683510E-003 0.0D0
   7.4603355308106361E-003 0.0D0
   3.8554842858611223E-002 0.0D0
   6.5823638676325763E-002 0.0D0
 -0.27384099210488821      0.0D0
   6.1414636269827884E-003 0.0D0
  -2.2426784994364359E-009 0.0D0
  -2.6815091303079902E-009 0.0D0
   3.3321825770832231E-002 0.0D0
  -1.4500937895113555E-009 0.0D0
  -1.7464492399776839E-009 0.0D0
 -0.16731336312672820      0.0D0
   3.6224890991396322E-009 0.0D0
   3.5758277314942071E-009 0.0D0
  0.57676040391251160      0.0D0
  -1.2170672951404550E-008 0.0D0
  -1.2381525160444543E-008 0.0D0
  0.13791392047406942      0.0D0
  -4.4561179842126565E-009 0.0D0
  -4.4033274151674748E-009 0.0D0
   2.6475336064934424E-003 0.0D0
   6.4986218186392253E-011 0.0D0
  -1.0366602342050870E-003 0.0D0
   6.3119987241651778E-011 0.0D0
  -2.7932399554749640E-006 0.0D0
  -1.1666052736274183E-003 0.0D0
   6.1234978988485907E-002 0.0D0
  -2.7987075836466198E-010 0.0D0
  -2.6540388679643923E-002 0.0D0
  -1.4260657743068861E-010 0.0D0
  -2.3983553467506830E-008 0.0D0
  -2.6542227583662960E-002 0.0D0
  -8.8977498619196054E-010 0.0D0
   2.6511993189036340E-008 0.0D0
  -8.8220720147780392E-009 0.0D0
   2.0521207211437028E-008 0.0D0
  -7.0231937490021420E-011 0.0D0
  -1.7599063298324667E-009 0.0D0
  -6.2090553130144724E-009 0.0D0
   4.8248758104735565E-010 0.0D0
   2.4914874515688167E-009 0.0D0
  -1.0483593316451144E-008 0.0D0
  -1.8415147536493272E-008 0.0D0
  -1.0639983402727058E-009 0.0D0
  -2.7718630162489599E-003 0.0D0
  -1.5596205886680942E-005 0.0D0
   1.5701287283543735E-008 0.0D0
  -6.2544819732089042E-003 0.0D0
  -8.8373505619934240E-006 0.0D0
   2.9994994127904887E-009 0.0D0
 -0.20664775587377854      0.0D0
  -9.7994719754513793E-009 0.0D0
  -1.2170672951404550E-008 0.0D0
  0.76585246922906014      0.0D0
   1.5072054662234201E-007 0.0D0
   1.0868670938751101E-008 0.0D0
  0.42259035178070270      0.0D0
  -4.8211888356071104E-007 0.0D0
  -3.2995365448872073E-010 0.0D0
  -1.1914703968650020E-003 0.0D0
  -8.1856577526014282E-010 0.0D0
   5.3783159233240029E-007 0.0D0
  -1.9467504579822224E-012 0.0D0
  -2.7438341290652668E-011 0.0D0
  -8.2596686641012426E-009 0.0D0
   2.7366309086255779E-002 0.0D0
  -5.3475787663749037E-009 0.0D0
  -1.6877133431296732E-008 0.0D0
   2.9114648253777415E-010 0.0D0
  -5.7010318617925171E-009 0.0D0
  -9.1052680089574341E-010 0.0D0
   2.7441111378503902E-008 0.0D0
  -8.6069288459053454E-009 0.0D0
   1.8552795953649677E-008 0.0D0
   3.3689948574749211E-012 0.0D0
  -1.5343665758132923E-009 0.0D0
  -5.0917082829592132E-009 0.0D0
   3.9351952470152170E-010 0.0D0
   2.3525813855500375E-009 0.0D0
  -1.4064960524365794E-008 0.0D0
  -1.8866400192203902E-008 0.0D0
  -8.4863697460960709E-010 0.0D0
  -1.5488782459379375E-005 0.0D0
  -3.6034623832103666E-003 0.0D0
   1.7195864023897705E-008 0.0D0
  -8.7941130569771602E-006 0.0D0
  -6.7265204860298532E-003 0.0D0
   3.0347038257213750E-009 0.0D0
  -9.7985913879504793E-009 0.0D0
 -0.20664794484632013      0.0D0
  -1.2381525160444543E-008 0.0D0
   1.5072054662234201E-007 0.0D0
  0.76585902610430534      0.0D0
   1.2896782067686788E-008 0.0D0
  -4.8300079695793190E-007 0.0D0
  0.42256463102756581      0.0D0
  -4.9129701284346527E-010 0.0D0
   5.3480100507328020E-007 0.0D0
  -1.7830721026007960E-010 0.0D0
  -1.1627660069684883E-003 0.0D0
  -5.1502552862956626E-012 0.0D0
  -9.6482335940339087E-010 0.0D0
  -8.6898339447661813E-009 0.0D0
  -1.6628938217253710E-008 0.0D0
  -6.2335843150122888E-009 0.0D0
   2.7364642219289231E-002 0.0D0
   2.8227809388160102E-010 0.0D0
  -5.4873714670914572E-009 0.0D0
   9.3721911113855694E-003 0.0D0
   7.2293207642763566E-003 0.0D0
   5.7221930344049571E-002 0.0D0
   3.3279080787275539E-002 0.0D0
  -4.6017084787667974E-003 0.0D0
   3.4612861126576341E-002 0.0D0
  -1.9628721020031194E-002 0.0D0
   5.3966511752094500E-003 0.0D0
   2.4283130188945505E-002 0.0D0
   5.6045178597311125E-002 0.0D0
  -8.6664058533500482E-002 0.0D0
  -2.9072553509016132E-002 0.0D0
   7.5010273856908206E-008 0.0D0
   8.6311916188005129E-008 0.0D0
  -5.4603225584035596E-004 0.0D0
   2.5974067640562045E-008 0.0D0
   3.3930341972194181E-008 0.0D0
  -4.4242545307262092E-002 0.0D0
  -3.5611228145131645E-009 0.0D0
  -3.7825473881789243E-009 0.0D0
  0.13791392047406942      0.0D0
   1.0868670938751101E-008 0.0D0
   1.2896782067686788E-008 0.0D0
   3.7312853856037768E-002 0.0D0
   6.0901822463697372E-009 0.0D0
   7.9756948909095267E-009 0.0D0
   2.1587309271019557E-003 0.0D0
  -2.0858496118444071E-009 0.0D0
  -1.2096258110933585E-003 0.0D0
  -2.5368695244132076E-009 0.0D0
   2.2772822783071074E-005 0.0D0
  -1.5070966413697085E-004 0.0D0
   1.3268031476113383E-002 0.0D0
   6.0870813542806837E-010 0.0D0
  -5.6954524330173634E-003 0.0D0